7728
Lattice="16.98 0.0 0.0 0.0 51.25347988 0.0 0.0 0.0 100.85030795" Properties=species:S:1:pos:R:3:force:R:3:map_shift:I:3:n_neighb:I:1:Z:I:1 virial="33.38669342 -0.08815827 -0.27519702 -0.08815827 -84.14389203 0.37212362 -0.27519702 0.37212362 0.0557521" cutoff=5.3 adsorbate_info=T nneightol=1.2 energy=-30921.03803528 pbc="T T T"
Fe      14.29061107      43.22966434      21.72682084      -0.00147608       0.00078420      -0.00041221       -1       -1        0       56       26 
Fe       0.14159502       2.54469455      75.66756709       0.00013249      -0.00031024       0.00012553        0        0       -1       56       26 
Fe      15.70547433      41.70231207      22.95479790       0.00103126      -0.00122785      -0.00076295       -1       -1        0       57       26 
Fe      14.29036344      40.37880821      21.40376282       0.00176620      -0.00082262       0.00187031       -1       -1        0       59       26 
Fe      -1.27301302      12.39783227      75.90790851      -0.00126382       0.00096806       0.00018544        0        0       -1       52       26 
Fe      15.70593469      38.75710059      22.59250519      -0.00086311       0.00363344       0.00105749       -1       -1        0       58       26 
Fe       0.14122638      14.02301806      77.03226727      -0.00036183       0.00013044      -0.00019280        0        0       -1       55       26 
Fe       1.55668045      15.35759900      75.66698180       0.00006909      -0.00001575       0.00052496        0        0       -1       56       26 
Fe       0.14116681      16.82460429      77.03072292      -0.00042050       0.00031819       0.00126176        0        0       -1       58       26 
Fe      14.29090413      37.49483725      21.07873679      -0.00163945      -0.00129674       0.00014020       -1       -1        0       58       26 
Fe       0.14075955      19.69951915      77.03760391       0.00065239      -0.00001978       0.00064116        0        0       -1       58       26 
Fe      15.70633845      35.88829298      22.34516688      -0.00225844      -0.00175006      -0.00388346       -1       -1        0       58       26 
Fe       0.14031566      22.66729462      77.21966100       0.00089287       0.00036133       0.00098391        0        0       -1       59       26 
Fe       0.14189971      25.21164587      75.90823384      -0.00114755       0.00046753      -0.00097118        0        0       -1       52       26 
Fe       0.14021131      25.27175813      78.20439887       0.00069637      -0.00101445      -0.00017836        0        0       -1       52       26 
Fe       1.55610937       1.20997064      77.03272989      -0.00007864      -0.00018782      -0.00051559        0        0       -1       55       26 
Fe       0.14068180       2.56015722      78.40302589      -0.00012547       0.00022401       0.00036445        0        0       -1       56       26 
Fe       1.55613750       4.01183195      77.03132574      -0.00027820       0.00037158       0.00058965        0        0       -1       58       26 
Fe       0.14050275       5.39906247      78.44855639       0.00058999      -0.00030931       0.00082766        0        0       -1       58       26 
Fe       1.55576002       6.88691631      77.03798234       0.00093798      -0.00011332       0.00054242        0        0       -1       58       26 
Fe       0.14022495       8.21588402      78.56017327       0.00038845      -0.00074496       0.00093616        0        0       -1       60       26 
Fe       1.55532610       9.85465186      77.21992451       0.00115957      -0.00016434       0.00073786        0        0       -1       59       26 
Fe       0.14002341      10.83681935      79.13117407       0.00016281       0.00029092       0.00059974        0        0       -1       56       26 
Fe       1.55535101      12.45863043      78.20449185       0.00032388      -0.00096172       0.00025112        0        0       -1       52       26 
Fe       0.14017175      13.79596320      79.62238865      -0.00016482      -0.00089184       0.00022913        0        0       -1       56       26 
Fe       1.55570086      15.37323559      78.40277410      -0.00036126      -0.00005885       0.00057175        0        0       -1       56       26 
Fe       0.14011105      16.69226215      79.82041099       0.00056969      -0.00052029       0.00050176        0        0       -1       58       26 
Fe       1.55543835      18.21152721      78.44815530       0.00038904       0.00011299       0.00120660        0        0       -1       58       26 
Fe       0.13991756      19.48851712      79.95653799       0.00039435       0.00076909       0.00114411        0        0       -1       58       26 
Fe       1.55512433      21.02802704      78.55977604       0.00032028      -0.00005965       0.00054426        0        0       -1       60       26 
Fe       0.13963576      22.13375634      80.28983878       0.00127647      -0.00003490       0.00090730        0        0       -1       56       26 
Fe       1.55485372      23.64927655      79.13002084       0.00060178       0.00040925       0.00077550        0        0       -1       56       26 
Fe       0.13980484      24.97357861      80.73189145       0.00107034       0.00061946       0.00086561        0        0       -1       57       26 
Fe       1.55520386       0.98231704      79.62192964      -0.00003873      -0.00063540       0.00030988        0        0       -1       56       26 
Fe       0.14014461       2.28140634      81.08293224       0.00008481      -0.00051280       0.00043683        0        0       -1       58       26 
Fe       1.55531482       3.87936779      79.82037275       0.00043176      -0.00077920       0.00038649        0        0       -1       58       26 
Fe       0.14014313       5.13131910      81.31244178       0.00009553      -0.00094271       0.00045515        0        0       -1       58       26 
Fe       1.55515725       6.67637161      79.95683785       0.00015005      -0.00069470       0.00057407        0        0       -1       58       26 
Fe       0.13985173       7.83931500      81.57830854       0.00085100      -0.00112347      -0.00109542        0        0       -1       58       26 
Fe       1.55482312       9.32146673      80.29098506       0.00089048      -0.00119993      -0.00058171        0        0       -1       56       26 
Fe       0.13965390      10.59528722      81.91012748       0.00086799      -0.00109708      -0.00110458        0        0       -1       58       26 
Fe       1.55473137      12.16114153      80.73318448       0.00091660      -0.00063677      -0.00079152        0        0       -1       57       26 
Fe       0.13964167      13.47089967      82.27102208       0.00052627      -0.00038608      -0.00027714        0        0       -1       59       26 
Fe       1.55485320      15.09497329      81.08373045       0.00017585      -0.00061995      -0.00007793        0        0       -1       58       26 
Fe       0.13963765      16.35364566      82.59074026       0.00058559      -0.00006885      -0.00010678        0        0       -1       58       26 
Fe       1.55477297      17.94411681      81.31270859       0.00032256       0.00017416       0.00081540        0        0       -1       58       26 
Fe       0.13965087      19.13768159      82.87908132       0.00060299      -0.00059409      -0.00046389        0        0       -1       58       26 
Fe       1.55462604      20.65191503      81.57769727       0.00097504       0.00028528       0.00028952        0        0       -1       58       26 
Fe       0.13982511      21.88767013      83.16983584       0.00006285       0.00015202       0.00020362        0        0       -1       58       26 
Fe       1.55475842      23.40774192      81.90876395       0.00066013       0.00019786       0.00105130        0        0       -1       58       26 
Fe       0.14008297      24.70047694      83.48174959       0.00003412      -0.00039919       0.00047012        0        0       -1       58       26 
Fe       1.55504300       0.65683863      82.26957650       0.00033231       0.00022751       0.00133239        0        0       -1       59       26 
Fe       0.14026175       1.93194505      83.81382509       0.00040704      -0.00025045       0.00020911        0        0       -1       58       26 
Fe       1.55518664       3.54006590      82.58975530       0.00027586      -0.00054194       0.00020603        0        0       -1       58       26 
Fe       0.14031878       4.76177300      84.14330132       0.00011781      -0.00020135      -0.00044157        0        0       -1       58       26 
Fe       1.55505605       6.32431119      82.87890870       0.00039129      -0.00120158      -0.00086782        0        0       -1       58       26 
Fe       0.14017832       7.54714550      84.44746271      -0.00030826       0.00029928      -0.00029581        0        0       -1       58       26 
Fe       1.55485948       9.07450624      83.17049397      -0.00000634      -0.00001822      -0.00060930        0        0       -1       58       26 
Fe       0.13987827      10.33930884      84.73721944       0.00014077       0.00062101       0.00037811        0        0       -1       58       26 
Fe       1.55467065      11.88757008      83.48302424       0.00016030      -0.00024538      -0.00045067        0        0       -1       58       26 
Fe       0.13971474      13.16198421      85.04638476      -0.00018541       0.00035649       0.00064314        0        0       -1       58       26 
Fe       1.55454821      14.74586848      83.81513896       0.00059656       0.00035322       0.00010049        0        0       -1       58       26 
Fe       0.13964199      15.99216459      85.37816687       0.00008582      -0.00008520       0.00050429        0        0       -1       58       26 
Fe       1.55460272      17.57586994      84.14414654       0.00048507      -0.00034800      -0.00031336        0        0       -1       58       26 
Fe       0.13979787      18.80673853      85.70559038       0.00004372      -0.00066184      -0.00070812        0        0       -1       58       26 
Fe       1.55483647      20.36115789      84.44764325      -0.00005635      -0.00047089      -0.00044387        0        0       -1       58       26 
Fe       0.14008405      21.60943376      86.00534968      -0.00013107      -0.00063970      -0.00055796        0        0       -1       58       26 
Fe       1.55510347      23.15286305      84.73675180       0.00019432      -0.00019999      -0.00007689        0        0       -1       58       26 
Fe       0.14047587      24.41510878      86.29929122      -0.00088398      -0.00039791      -0.00024665        0        0       -1       58       26 
Fe       1.55545486       0.34825380      85.04543871      -0.00048371      -0.00062635       0.00026052        0        0       -1       58       26 
Fe       0.14067458       1.60299758      86.61435788      -0.00125551      -0.00007253       0.00012370        0        0       -1       58       26 
Fe       1.55553467       3.17783283      85.37722594      -0.00046994       0.00006292      -0.00013027        0        0       -1       58       26 
Fe       0.14068502       4.42110122      86.94390319      -0.00205799       0.00044746      -0.00005069        0        0       -1       58       26 
Fe       1.55536832       5.99220418      85.70489183      -0.00032607       0.00031155      -0.00024517        0        0       -1       58       26 
Fe       0.14030705       7.23759612      87.26181715      -0.00073427       0.00082371       0.00094420        0        0       -1       58       26 
Fe       1.55507502       8.79522707      86.00502330      -0.00009268       0.00046447       0.00090131        0        0       -1       58       26 
Fe       0.14005354      10.04753035      87.56184612      -0.00089862       0.00053514       0.00098099        0        0       -1       58       26 
Fe       1.55484653      11.60160838      86.29950772      -0.00047666       0.00039147       0.00059817        0        0       -1       58       26 
Fe       0.13969116      12.85477113      87.86530328       0.00017183      -0.00008368      -0.00061496        0        0       -1       58       26 
Fe       1.55462988      14.41705812      86.61499759       0.00006106      -0.00026219       0.00027477        0        0       -1       58       26 
Fe       0.13959503      15.66669088      88.18425962       0.00045819      -0.00118396      -0.00061856        0        0       -1       58       26 
Fe       1.55474544      17.23574511      86.94476139      -0.00052228      -0.00108636      -0.00053193        0        0       -1       58       26 
Fe       0.13979869      18.48463863      88.50717215      -0.00028950      -0.00052278      -0.00045925        0        0       -1       58       26 
Fe       1.55486158      20.05215199      87.26271934       0.00027633      -0.00036760      -0.00060805        0        0       -1       58       26 
Fe       0.14007663      21.30135151      88.81938527      -0.00089071       0.00052465      -0.00027545        0        0       -1       58       26 
Fe       1.55525263      22.86151637      87.56253290      -0.00075936      -0.00003237      -0.00063440        0        0       -1       58       26 
Fe       0.14021452      24.11056815      89.12352384      -0.00105697       0.00062041      -0.00020181        0        0       -1       58       26 
Fe       1.55541906       0.04123189      87.86549558      -0.00094818       0.00006465      -0.00064194        0        0       -1       58       26 
Fe       0.14011823       1.29100044      89.43270992      -0.00108093      -0.00034530      -0.00043281        0        0       -1       58       26 
Fe       1.55535073       2.85251383      88.18394712      -0.00086264      -0.00011043      -0.00034526        0        0       -1       58       26 
Fe       0.13978073       4.10393468      89.74973141      -0.00008042      -0.00003769       0.00036889        0        0       -1       58       26 
Fe       1.55521617       5.67018775      88.50629092      -0.00090585       0.00118413       0.00090938        0        0       -1       58       26 
Fe       0.13975739       6.92158454      90.06655023      -0.00114643       0.00068956       0.00055329        0        0       -1       58       26 
Fe       1.55504560       8.48729484      88.81834772      -0.00099669       0.00104856       0.00057659        0        0       -1       58       26 
Fe       0.13966235       9.73640113      90.37756106      -0.00022635      -0.00015708      -0.00046348        0        0       -1       58       26 
Fe       1.55477662      11.29710348      89.12271187       0.00024921      -0.00008981      -0.00054004        0        0       -1       58       26 
Fe       0.13968397      12.54536366      90.68594945       0.00042712       0.00028126      -0.00059478        0        0       -1       58       26 
Fe       1.55469076      14.10442696      89.43230554       0.00039376       0.00046327      -0.00044653        0        0       -1       58       26 
Fe       0.13976856      15.35463719      90.99780604      -0.00019419       0.00215216       0.00038476        0        0       -1       58       26 
Fe       1.55466532      16.91757252      89.75010960       0.00050276       0.00019986      -0.00015723        0        0       -1       58       26 
Fe       0.13967195      18.16908016      91.31350129       0.00045887       0.00024459       0.00031386        0        0       -1       58       26 
Fe       1.55488394      19.73537438      90.06761289      -0.00056999      -0.00057272      -0.00001344        0        0       -1       58       26 
Fe       0.13966449      20.98509968      91.62850520       0.00033332       0.00030356       0.00081967        0        0       -1       58       26 
Fe       1.55493010      22.54993452      90.37884383      -0.00060160      -0.00005081      -0.00003314        0        0       -1       58       26 
Fe      17.11953979      23.79802597      91.94025452      -0.00030677       0.00033172      -0.00041924       -1        0       -1       58       26 
Fe       1.55466394      25.35893130      90.68690808      -0.00010451       0.00027892      -0.00005612        0        0       -1       58       26 
Fe       0.13911461       0.98168284      92.25013098      -0.00020363      -0.00006354       0.00058688        0        0       -1       58       26 
Fe       1.55439368       2.54183124      90.99812441      -0.00011972      -0.00021198       0.00027878        0        0       -1       58       26 
Fe       0.13878291       3.79333456      92.56187562      -0.00014651      -0.00027093      -0.00027299        0        0       -1       58       26 
Fe       1.55420626       5.35608343      91.31295671      -0.00008085       0.00025208       0.00023805        0        0       -1       58       26 
Fe       0.13857102       6.60754233      92.87565878       0.00179891      -0.00069123      -0.00013031        0        0       -1       58       26 
Fe       1.55422868       8.17215906      91.62745668       0.00074254      -0.00117741      -0.00023261        0        0       -1       58       26 
Fe       0.13915633       9.42173388      93.18944333       0.00085940      -0.00229816      -0.00042552        0        0       -1       58       26 
Fe       1.55470038      10.98459999      91.93898639      -0.00041341       0.00023183       0.00007332        0        0       -1       58       26 
Fe       0.13993752      12.23333870      93.50140269      -0.00080701       0.00032768       0.00096806        0        0       -1       58       26 
Fe       1.55497120      13.79439400      92.24941002      -0.00041742       0.00068705       0.00066656        0        0       -1       58       26 
Fe       0.14013673      15.04429585      93.81281665       0.00011753      -0.00036731      -0.00000913        0        0       -1       58       26 
Fe       1.55492733      16.60572307      92.56186228       0.00058454       0.00024480      -0.00000076        0        0       -1       58       26 
Fe       0.14000611      17.85643505      94.12535388       0.00015247       0.00153750       0.00004865        0        0       -1       58       26 
Fe       1.55475336      19.41971829      92.87616550       0.00070938       0.00190002       0.00155641        0        0       -1       58       26 
Fe       0.13958643      20.67027706      94.43905691      -0.00014061       0.00068890      -0.00011021        0        0       -1       58       26 
Fe       1.55449310      22.23438896      93.19019858      -0.00040268       0.00110372       0.00081173        0        0       -1       58       26 
Fe       0.13895860      23.48422157      94.75240221       0.00041817      -0.00049090       0.00001916        0        0       -1       58       26 
Fe       1.55396235      25.04738461      93.50211924      -0.00007696      -0.00123762       0.00045801        0        0       -1       58       26 
Fe       0.13827034       0.67029725      95.06425435       0.00147551      -0.00171888       0.00056554        0        0       -1       58       26 
Fe       1.55349268       2.23214700      93.81297189       0.00008796      -0.00118292       0.00023602        0        0       -1       58       26 
Fe       0.13790114       3.48238282      95.37576725       0.00168531      -0.00148887       0.00045004        0        0       -1       58       26 
Fe       1.55323794       5.04450789      94.12498424       0.00097509      -0.00109522       0.00017983        0        0       -1       58       26 
Fe       0.13810895       6.29466104      95.68814167       0.00115825      -0.00065385       0.00047893        0        0       -1       58       26 
Fe       1.55367560       7.85774437      94.43842024       0.00034842      -0.00110438       0.00055985        0        0       -1       58       26 
Fe       0.13890420       9.10719832      96.00150716       0.00036425       0.00073235       0.00040191        0        0       -1       58       26 
Fe       1.55444015      10.67069155      94.75194564       0.00033821      -0.00092979       0.00032422        0        0       -1       58       26 
Fe       0.13992454      11.92003586      96.31455631      -0.00052469       0.00032149       0.00090949        0        0       -1       58       26 
Fe       1.55517547      13.48256659      95.06421144      -0.00017225       0.00049170       0.00015456        0        0       -1       58       26 
Fe       0.14071783      14.73259896      96.62689333      -0.00283773       0.00011165       0.00063260        0        0       -1       58       26 
Fe       1.55545487      16.29422990      95.37583190      -0.00145063       0.00197559       0.00084093        0        0       -1       58       26 
Fe       0.14043833      17.54491916      96.93898094      -0.00180840      -0.00005907      -0.00003069        0        0       -1       58       26 
Fe       1.55489927      19.10700192      95.68858219      -0.00036761       0.00073200      -0.00116194        0        0       -1       58       26 
Fe       0.13945597      20.35769024      97.25156117       0.00061916      -0.00098974      -0.00034843        0        0       -1       58       26 
Fe       1.55400836      21.92057889      96.00185018       0.00127504      -0.00094279      -0.00092667        0        0       -1       58       26 
Fe       0.13866295      23.17066337      97.56445631       0.00029317       0.00069575       0.00013065        0        0       -1       58       26 
Fe       1.55333890      24.73399394      96.31478705       0.00096446      -0.00001952      -0.00052699        0        0       -1       58       26 
Fe       0.13805942       0.35674103      97.87711729       0.00005783       0.00233204       0.00061646        0        0       -1       58       26 
Fe       1.55273494       1.92006264      96.62676194       0.00153117      -0.00034062       0.00078970        0        0       -1       58       26 
Fe       0.13753171       3.16943065      98.18945674       0.00183779       0.00071615       0.00084776        0        0       -1       58       26 
Fe       1.55267732       4.73217410      96.93881135       0.00136797       0.00007133       0.00087004        0        0       -1       58       26 
Fe       0.13781488       5.98177354      98.50197813       0.00137494      -0.00082303      -0.00040454        0        0       -1       58       26 
Fe       1.55320458       7.54435059      97.25159231       0.00145028      -0.00040639      -0.00046372        0        0       -1       58       26 
Fe       0.13855408       8.79419820      98.81443977       0.00045854      -0.00096149       0.00025021        0        0       -1       58       26 
Fe       1.55419496      10.35690021      97.56451113       0.00020490       0.00036704       0.00056142        0        0       -1       58       26 
Fe       0.13945838      11.60693308      99.12706918      -0.00053923       0.00028560       0.00045140        0        0       -1       58       26 
Fe       1.55522034      13.16990168      97.87729782      -0.00196459      -0.00009622       0.00062613        0        0       -1       58       26 
Fe       0.13987701      14.42017981      99.43973993       0.00024918      -0.00213408      -0.00036683        0        0       -1       58       26 
Fe       1.55545295      15.98290444      98.18981887      -0.00182960      -0.00280742      -0.00108107        0        0       -1       58       26 
Fe       0.13973476      17.23290449      99.75227866      -0.00025704      -0.00125939      -0.00022497        0        0       -1       58       26 
Fe       1.55499047      18.79536537      98.50216659      -0.00243811      -0.00198248      -0.00143940        0        0       -1       58       26 
Fe       0.13912354      20.04562833     100.06498521      -0.00117149      -0.00160088      -0.00095081        0        0       -1       58       26 
Fe       1.55410823      21.60769914      98.81443459      -0.00223814       0.00130321       0.00101801        0        0       -1       58       26 
Fe       0.13814990      22.85803088     100.37748642       0.00081943      -0.00144437      -0.00115196        0        0       -1       58       26 
Fe       1.55324619      24.42044870      99.12721113      -0.00015054       0.00105921       0.00003557        0        0       -1       58       26 
Fe       1.55264176       1.60659121      99.44000646       0.00130538      -0.00012140      -0.00057635        0        0       -1       58       26 
Fe       1.55255236       4.41914062      99.75275289       0.00131363      -0.00066552      -0.00109983        0        0       -1       58       26 
Fe       1.55298220       7.23147575     100.06519541       0.00050954       0.00028887      -0.00153824        0        0       -1       58       26 
Fe       1.55383761      10.04404918     100.37730391      -0.00100347       0.00073330      -0.00015229        0        0       -1       58       26 
Fe       0.13761724       0.04363893     100.68984313       0.00149299      -0.00053884       0.00075194        0        0       -1       58       26 
Fe       0.14164127       5.40295893      75.62137239      -0.00112914       0.00012961      -0.00010508        0        0       -1       58       26 
Fe       0.14125074       8.25740357      75.54646357      -0.00001036      -0.00005980       0.00032972        0        0       -1       60       26 
Fe       0.14183523      10.73657703      75.02730318       0.00004864       0.00037307       0.00068331        0        0       -1       56       26 
Fe       0.14226556      13.74785372      74.48525159      -0.00121149       0.00110211       0.00070442        0        0       -1       56       26 
Fe       1.55446323      12.85699200     100.68964904      -0.00065705      -0.00046875      -0.00027905        0        0       -1       58       26 
Fe       0.14210470      16.67763098      74.25866879      -0.00052178       0.00055973       0.00020520        0        0       -1       58       26 
Fe       1.55667744      18.21592258      75.62096196      -0.00109203       0.00034649       0.00043618        0        0       -1       58       26 
Fe       0.14204409      19.49866368      74.12272077      -0.00055059       0.00017602       0.00028575        0        0       -1       58       26 
Fe       1.55625945      21.07057301      75.54646183      -0.00005049       0.00015006       0.00027009        0        0       -1       60       26 
Fe       0.14199459      22.11362681      73.70561405      -0.00005955       0.00043687       0.00025286        0        0       -1       56       26 
Fe       1.55677547      23.55030648      75.02786103       0.00019276      -0.00036292       0.00018035        0        0       -1       56       26 
Fe       0.14235884      24.92678025      73.37987773      -0.00101722       0.00032099      -0.00020922        0        0       -1       57       26 
Fe       1.55719762       0.93493190      74.48566772      -0.00127802       0.00087945       0.00028690        0        0       -1       56       26 
Fe       0.14229809       2.24445225      73.01780249      -0.00101061       0.00135379      -0.00009662        0        0       -1       58       26 
Fe       1.55703789       3.86439129      74.25901487      -0.00073263       0.00070715      -0.00038599        0        0       -1       58       26 
Fe       0.14225690       5.11357290      72.76990320      -0.00137598       0.00117094       0.00071733        0        0       -1       58       26 
Fe       1.55703245       6.68498094      74.12256361      -0.00098405       0.00112190       0.00072331        0        0       -1       58       26 
Fe       0.14210220       7.80239458      72.47182302      -0.00073253       0.00070129       0.00002699        0        0       -1       56       26 
Fe       1.55701396       9.29978632      73.70516459      -0.00033273       0.00090661       0.00043912        0        0       -1       56       26 
Fe       0.14220080      10.58604836      72.15114433      -0.00063091       0.00086936       0.00013249        0        0       -1       56       26 
Fe       1.55743112      12.11313252      73.37950942      -0.00115898       0.00042650       0.00001054        0        0       -1       57       26 
Fe       0.14239746      13.43679530      71.82901541      -0.00062253       0.00008276      -0.00065181        0        0       -1       59       26 
Fe       1.55740462      15.05780513      73.01774989      -0.00079262       0.00097497      -0.00027894        0        0       -1       58       26 
Fe       0.14238708      16.32092647      71.50426145      -0.00025541       0.00049693       0.00012033        0        0       -1       58       26 
Fe       1.55739050      17.92735339      72.77008899      -0.00108823       0.00035271       0.00068058        0        0       -1       58       26 
Fe       0.14238059      19.10200410      71.18999363      -0.00099263       0.00069625      -0.00012703        0        0       -1       58       26 
Fe       1.55720058      20.61622315      72.47217232      -0.00052799       0.00027627       0.00017615        0        0       -1       56       26 
Fe       0.14208420      21.86702136      70.88990545       0.00024671      -0.00016424      -0.00017594        0        0       -1       58       26 
Fe       1.55721600      23.39962373      72.15141154      -0.00061904       0.00070450       0.00046165        0        0       -1       56       26 
Fe       0.14210660      24.68359530      70.59157191      -0.00050671       0.00046404      -0.00019718        0        0       -1       58       26 
Fe       1.55729036       0.62328805      71.82900361      -0.00085555       0.00061357      -0.00021540        0        0       -1       59       26 