21888
Lattice="16.98 0.0 0.0 0.0 85.65134208 0.0 0.0 0.0 171.1411129" Properties=species:S:1:pos:R:3:force:R:3:map_shift:I:3:n_neighb:I:1:Z:I:1 nneightol=1.2 virial="-389.87614633 0.01793499 -3.15e-06 0.01793499 -594.5948447 0.00159768 -3.15e-06 0.00159768 -657.51714905" energy=-87669.91760802 cutoff=5.3 pbc="T T T"
Fe      15.71690720      43.46585552       7.16541183      -0.00011569      -0.00014348      -0.00001368       -1       -1        0       58       26 
Fe       0.14156977       2.81997893     128.87494379       0.00000904      -0.00003697      -0.00003954        0        0       -1       53       26 
Fe       0.14162464       5.66196769     128.86790361       0.00001283       0.00000985       0.00002583        0        0       -1       58       26 
Fe       0.14179285       8.62541172     129.05231732      -0.00002316       0.00002250      -0.00003042        0        0       -1       59       26 
Fe       0.14256682      11.24936293     130.04699958      -0.00002715      -0.00003667      -0.00004429        0        0       -1       53       26 
Fe       1.55654528      12.79770308     128.86876979      -0.00000366      -0.00007236      -0.00003545        0        0       -1       54       26 
Fe       0.14222838      14.17498091     130.23554600      -0.00001585      -0.00002158      -0.00008295        0        0       -1       56       26 
Fe       1.55643891      15.59472822     128.84393347       0.00000165      -0.00002744      -0.00004673        0        0       -1       58       26 
Fe       0.14205825      17.06017694     130.25473542      -0.00002318      -0.00005541      -0.00000991        0        0       -1       58       26 
Fe       1.55626017      18.40763735     128.73987819       0.00000068       0.00004067      -0.00001275        0        0       -1       60       26 
Fe       0.14194956      20.03782856     130.08342008       0.00001275      -0.00000822      -0.00003148        0        0       -1       59       26 
Fe      14.30178996      84.70124063       8.38269886      -0.00010541      -0.00014312      -0.00002168       -1       -1        0       58       26 
Fe       0.14313370      22.57873226     131.39208766      -0.00003573      -0.00006533      -0.00005938        0        0       -1       52       26 
Fe       1.55711254      24.23477518     130.27381548      -0.00003192      -0.00002989      -0.00004753        0        0       -1       53       26 
Fe       0.14286942      25.55457475     131.65774133      -0.00002828      -0.00006668      -0.00001101        0        0       -1       56       26 
Fe       1.55705901      27.07654723     130.28158565      -0.00000423      -0.00009582      -0.00002563        0        0       -1       58       26 
Fe       0.14283884      28.41479743     131.76834842      -0.00000980      -0.00010145      -0.00001473        0        0       -1       60       26 
Fe       1.55692492      30.03999356     130.09850980       0.00000361      -0.00006965       0.00014694        0        0       -1       61       26 
Fe       0.14341322      30.88589580     132.29101411      -0.00004048      -0.00006328       0.00000860        0        0       -1       56       26 
Fe       1.55812725      32.55690136     131.39872687      -0.00001794      -0.00009962      -0.00006533        0        0       -1       52       26 
Fe       0.14359797      33.86130720     132.85275310      -0.00001264      -0.00009714      -0.00003232        0        0       -1       56       26 
Fe       1.55787766      35.50730131     131.67595034      -0.00001427      -0.00006005      -0.00004699        0        0       -1       56       26 
Fe       0.14360860      36.73992464     133.15311240      -0.00002854      -0.00002073      -0.00004818        0        0       -1       58       26 
Fe       1.55800817      38.30958165     131.80147223      -0.00004418      -0.00006075       0.00000018        0        0       -1       58       26 
Fe       0.14378339      39.40934645     133.46093273      -0.00003459      -0.00008867       0.00002191        0        0       -1       56       26 
Fe       1.55842450      40.91139740     132.22648539      -0.00003664      -0.00004153       0.00001181        0        0       -1       56       26 
Fe       0.14405743      42.17615789     133.79955066      -0.00005609      -0.00009440       0.00000914        0        0       -1       56       26 
Fe       1.55756201       1.19845950     130.01795140      -0.00001437      -0.00003064      -0.00004004        0        0       -1       52       26 
Fe       0.14308390       2.53867870     131.45810869      -0.00002765      -0.00007873      -0.00000932        0        0       -1       56       26 
Fe       1.55733761       4.16366659     130.25179041       0.00000132      -0.00003723      -0.00001963        0        0       -1       56       26 
Fe       0.14308075       5.42329178     131.73597015      -0.00003416      -0.00000059      -0.00003203        0        0       -1       58       26 
Fe       1.55747112       6.98844208     130.37404457      -0.00001466      -0.00003211       0.00001798        0        0       -1       60       26 
Fe       0.14328160       8.08920499     132.09104589      -0.00002007      -0.00003455       0.00001299        0        0       -1       56       26 
Fe       1.55793354       9.61947239     130.95291807      -0.00002076       0.00000273      -0.00001443        0        0       -1       56       26 
Fe       0.14356250      10.94488900     132.55443830      -0.00003447      -0.00003367      -0.00001080        0        0       -1       57       26 
Fe       1.55799680      12.59701335     131.45629069      -0.00002970      -0.00005824      -0.00004501        0        0       -1       56       26 
Fe       0.14360168      13.90238295     132.90853498      -0.00002395      -0.00006072      -0.00001747        0        0       -1       58       26 
Fe       1.55789782      15.52831630     131.63906487      -0.00002510      -0.00010038      -0.00002169        0        0       -1       58       26 
Fe       0.14367123      16.77229155     133.14450179      -0.00002651      -0.00006528      -0.00004486        0        0       -1       58       26 
Fe       1.55779236      18.40408041     131.75278105      -0.00000567      -0.00006656      -0.00000622        0        0       -1       60       26 
Fe       0.14391735      19.40934448     133.58665914      -0.00003355      -0.00008935       0.00000766        0        0       -1       56       26 
Fe       1.55842265      20.89700311     132.28697881      -0.00002932      -0.00006589       0.00002752        0        0       -1       56       26 
Fe       0.14419228      22.21937167     133.94828884      -0.00005395      -0.00006839       0.00002131        0        0       -1       57       26 
Fe       1.55862391      23.89455261     132.84497656      -0.00003734      -0.00013503      -0.00003235        0        0       -1       56       26 
Fe       0.14424385      25.12421029     134.37812397      -0.00005579      -0.00005910      -0.00007890        0        0       -1       58       26 
Fe       1.55864065      26.78741771     133.14529241      -0.00003191      -0.00001693      -0.00006112        0        0       -1       58       26 
Fe       0.14431136      27.86744631     134.78836796      -0.00003493      -0.00007782      -0.00003925        0        0       -1       56       26 
Fe       1.55887305      29.40740829     133.59001884      -0.00004853      -0.00010385      -0.00002612        0        0       -1       56       26 
Fe       0.14452500      30.64340310     135.16368484      -0.00004906      -0.00007787      -0.00001833        0        0       -1       58       26 
Fe       1.55914185      32.19872611     133.94829294      -0.00003163      -0.00004617       0.00002994        0        0       -1       57       26 
Fe       0.14467463      33.45915879     135.54008138      -0.00002296      -0.00003971       0.00006033        0        0       -1       58       26 
Fe       1.55917523      35.10062118     134.37442287      -0.00003166      -0.00005317      -0.00005711        0        0       -1       58       26 
Fe      17.12476239      36.29004427     135.95256093      -0.00004130      -0.00009001      -0.00002966       -1        0       -1       58       26 
Fe       1.55926555      37.88483601     134.73605176      -0.00004570      -0.00008977       0.00000994        0        0       -1       58       26 
Fe       0.14490375      39.08062197     136.31380389      -0.00006242      -0.00008500      -0.00003512        0        0       -1       58       26 
Fe       1.55946437      40.63226408     135.05736618      -0.00004337      -0.00004702       0.00000327        0        0       -1       58       26 
Fe       0.14507282      41.86088743     136.64011705      -0.00005421      -0.00006881      -0.00001373        0        0       -1       58       26 
Fe       1.55869704       0.89065583     132.57209324      -0.00004054      -0.00006206      -0.00001518        0        0       -1       55       26 
Fe       0.14421019       2.17123712     134.16376339      -0.00004238      -0.00007799      -0.00004781        0        0       -1       58       26 
Fe       1.55867740       3.79878569     132.97905666      -0.00003206      -0.00005469      -0.00002066        0        0       -1       58       26 
Fe       0.14427717       4.99840862     134.56796911      -0.00004844      -0.00008361      -0.00001526        0        0       -1       58       26 
Fe       1.55876485       6.57464198     133.34504846      -0.00005598      -0.00005539      -0.00000194        0        0       -1       58       26 
Fe       0.14443104       7.79799904     134.93553596      -0.00005567      -0.00007536       0.00000620        0        0       -1       58       26 
Fe       1.55899575       9.35417018     133.70730562      -0.00004826      -0.00005195      -0.00000606        0        0       -1       58       26 
Fe       0.14460231      10.63154217     135.28370072      -0.00003822      -0.00007942       0.00000180        0        0       -1       59       26 
Fe       1.55913668      12.24800288     134.08960034      -0.00004904      -0.00006145      -0.00003479        0        0       -1       59       26 
Fe       0.14472933      13.49489035     135.64808419      -0.00005778      -0.00011038      -0.00002685        0        0       -1       58       26 
Fe       1.55924390      15.13616345     134.42996297      -0.00005097      -0.00006028      -0.00001065        0        0       -1       58       26 
Fe       0.14483606      16.29711763     136.03115625      -0.00005900      -0.00003328       0.00000622        0        0       -1       58       26 
Fe       1.55934647      17.86801530     134.79445747      -0.00003521      -0.00008959      -0.00005423        0        0       -1       56       26 
Fe       0.14499325      19.07603319     136.40036162      -0.00004162      -0.00004805      -0.00006530        0        0       -1       58       26 
Fe       1.55956300      20.65240574     135.16551247      -0.00002558      -0.00006627      -0.00001341        0        0       -1       56       26 
Fe       0.14515746      21.87414649     136.76711413      -0.00004239      -0.00006145      -0.00001444        0        0       -1       58       26 
Fe       1.55972428      23.47146687     135.55080409      -0.00003478      -0.00002909       0.00000129        0        0       -1       58       26 
Fe       0.14528766      24.66996561     137.17149397      -0.00006469      -0.00003544      -0.00000710        0        0       -1       58       26 
Fe       1.55980837      26.28019108     135.99014111      -0.00004311      -0.00004870      -0.00006177        0        0       -1       58       26 
Fe       0.14540462      27.47718545     137.59048642      -0.00005685      -0.00006895      -0.00005910        0        0       -1       58       26 
Fe       1.55995057      29.06885916     136.38799489      -0.00005698      -0.00005448      -0.00005975        0        0       -1       58       26 
Fe       0.14554750      30.28462167     137.97321003      -0.00004992      -0.00011978       0.00000196        0        0       -1       58       26 
Fe       1.56011857      31.86965629     136.75350303      -0.00006034      -0.00009197       0.00005001        0        0       -1       58       26 
Fe       0.14568520      33.08585509     138.34730444      -0.00006875      -0.00008198       0.00002798        0        0       -1       58       26 
Fe       1.56024132      34.67743022     137.13877979      -0.00005300      -0.00006135       0.00002986        0        0       -1       58       26 
Fe       0.14580275      35.89302178     138.73282274      -0.00008142      -0.00006134       0.00002811        0        0       -1       58       26 
Fe       1.56035549      37.49350807     137.53383626      -0.00007145      -0.00007870      -0.00001169        0        0       -1       58       26 
Fe       0.14592863      38.70792377     139.11215851      -0.00004646      -0.00004935       0.00002897        0        0       -1       58       26 
Fe       1.56050122      40.29462156     137.88795563      -0.00005429      -0.00010139      -0.00002266        0        0       -1       58       26 
Fe       0.14606032      41.50993980     139.46705798      -0.00004728      -0.00006201      -0.00004675        0        0       -1       58       26 
Fe       1.55964463       0.59575014     135.39209066      -0.00006151      -0.00005599      -0.00000053        0        0       -1       58       26 
Fe       0.14521335       1.82500947     136.98899803      -0.00005471      -0.00008602       0.00001612        0        0       -1       58       26 
Fe       1.55976267       3.40170363     135.76656829      -0.00004719      -0.00008842      -0.00004987        0        0       -1       58       26 
Fe       0.14534211       4.63196117     137.36258740      -0.00005218      -0.00012250       0.00000491        0        0       -1       58       26 
Fe       1.55988846       6.22057858     136.15473016      -0.00005167      -0.00007507       0.00000957        0        0       -1       58       26 
Fe       0.14548263       7.45719908     137.73226494      -0.00005050      -0.00006911       0.00001958        0        0       -1       58       26 
Fe       1.56004454       9.04526491     136.50872032      -0.00005146      -0.00009540       0.00000983        0        0       -1       58       26 
Fe       0.14562034      10.28034700     138.08767868      -0.00006106      -0.00009236       0.00006016        0        0       -1       58       26 
Fe       1.56019246      11.87739455     136.86198092      -0.00004461      -0.00012247       0.00000076        0        0       -1       58       26 
Fe       0.14575438      13.09214179     138.45771801      -0.00007492      -0.00011140      -0.00006181        0        0       -1       58       26 
Fe       1.56030875      14.69402511     137.24464494      -0.00005583      -0.00007576      -0.00005809        0        0       -1       58       26 
Fe       0.14588195      15.89826171     138.84333632      -0.00007814      -0.00012914      -0.00003756        0        0       -1       58       26 
Fe       1.56043613      17.49339066     137.62824565      -0.00007222      -0.00007840      -0.00000846        0        0       -1       58       26 
Fe       0.14601545      18.70125647     139.22182300      -0.00006932      -0.00006210       0.00000746        0        0       -1       58       26 
Fe       1.56058440      20.28898841     137.99557543      -0.00006195      -0.00007428      -0.00000596        0        0       -1       58       26 
Fe       0.14614909      21.49391051     139.59825387      -0.00006967      -0.00011285       0.00002691        0        0       -1       58       26 
Fe       1.56072531      23.07871390     138.37816835      -0.00006980      -0.00008787       0.00001775        0        0       -1       58       26 
Fe       0.14627496      24.28674857     139.98644795      -0.00005672      -0.00008475      -0.00003162        0        0       -1       58       26 
Fe       1.56084733      25.87716467     138.78202783      -0.00007170      -0.00006852      -0.00002410        0        0       -1       58       26 
Fe       0.14640373      27.09270905     140.38183025      -0.00006014      -0.00007296      -0.00001735        0        0       -1       58       26 
Fe       1.56097757      28.69039676     139.18152135      -0.00005442      -0.00009565      -0.00002033        0        0       -1       58       26 
Fe       0.14653058      29.90458783     140.77246591      -0.00007346      -0.00008751       0.00001110        0        0       -1       58       26 
Fe       1.56111184      31.49771511     139.56269566      -0.00004050      -0.00011539       0.00003367        0        0       -1       58       26 
Fe       0.14665553      32.71181630     141.15343520      -0.00006395      -0.00008891       0.00000857        0        0       -1       58       26 
Fe       1.56123580      34.30122857     139.94069977      -0.00007106      -0.00006528      -0.00000842        0        0       -1       58       26 
Fe       0.14677023      35.51934650     141.53070254      -0.00006260      -0.00010631       0.00001965        0        0       -1       58       26 
Fe       1.56135159      37.11188027     140.32058023      -0.00006674      -0.00006208       0.00001936        0        0       -1       58       26 
Fe       0.14688658      38.33091300     141.90611228      -0.00006376      -0.00009503      -0.00001596        0        0       -1       58       26 
Fe       1.56147303      39.92409338     140.69222961      -0.00004738      -0.00005255       0.00002661        0        0       -1       58       26 
Fe       0.14701241      41.14119562     142.27417030      -0.00006269      -0.00005158       0.00004727        0        0       -1       58       26 
Fe       1.56160938      42.72702613     141.04920305      -0.00004785      -0.00008951       0.00000019        0        0       -1       58       26 
Fe       1.56064679       0.25685040     138.22764385      -0.00005085      -0.00010012       0.00000017        0        0       -1       58       26 
Fe       0.14620390       1.47850658     139.81564196      -0.00006412      -0.00010083       0.00001997        0        0       -1       58       26 
Fe       1.56078020       3.05257679     138.58337560      -0.00006013      -0.00011574      -0.00001565        0        0       -1       58       26 
Fe       0.14634026       4.28195202     140.17225077      -0.00006487      -0.00012416       0.00000704        0        0       -1       58       26 
Fe       1.56091642       5.86640268     138.94930611      -0.00006258      -0.00007681       0.00000506        0        0       -1       58       26 
Fe       0.14647371       7.09535160     140.53535151      -0.00006695      -0.00009818       0.00000417        0        0       -1       58       26 
Fe       1.56104832       8.68741555     139.31326319      -0.00005331      -0.00009232       0.00000833        0        0       -1       58       26 
Fe       0.14659583       9.90676479     140.90261086      -0.00006207      -0.00010433       0.00001087        0        0       -1       58       26 
Fe       1.56117579      11.49824375     139.67906681      -0.00005623      -0.00010267       0.00002729        0        0       -1       58       26 
Fe       0.14671641      12.71099271     141.27552813      -0.00006052      -0.00005708      -0.00002776        0        0       -1       58       26 
Fe       1.56130568      14.30260695     140.05691400      -0.00006472      -0.00006962      -0.00004466        0        0       -1       58       26 
Fe       0.14684184      15.51431563     141.65485337      -0.00006046      -0.00015344       0.00000474        0        0       -1       58       26 
Fe       1.56143505      17.10783441     140.43947516      -0.00006613      -0.00012733      -0.00001543        0        0       -1       58       26 
Fe       0.14696560      18.31670524     142.03697469      -0.00005945      -0.00014142       0.00000949        0        0       -1       58       26 
Fe       1.56156411      19.90726289     140.81961302      -0.00007029      -0.00009139       0.00003470        0        0       -1       58       26 
Fe       0.14709168      21.11508042     142.41877505      -0.00007082      -0.00012727       0.00003320        0        0       -1       58       26 
Fe       1.56169362      22.70128177     141.20119979      -0.00007413      -0.00012248       0.00001310        0        0       -1       58       26 
Fe       0.14721884      23.91352804     142.80100247      -0.00006903      -0.00011212      -0.00001334        0        0       -1       58       26 
Fe       1.56181906      25.50101270     141.58805097      -0.00007095      -0.00012479      -0.00004788        0        0       -1       58       26 
Fe       0.14733836      26.71731965     143.18575063      -0.00005298      -0.00013853       0.00001097        0        0       -1       58       26 
Fe       1.56194020      28.30926069     141.97764883      -0.00006084      -0.00012346       0.00001616        0        0       -1       58       26 
Fe       0.14745415      29.52608709     143.57165516      -0.00005657      -0.00007801      -0.00002301        0        0       -1       58       26 
Fe       1.56205980      31.11967026     142.36377606      -0.00005622      -0.00011671      -0.00000891        0        0       -1       58       26 
Fe       0.14756857      32.33649381     143.95430515      -0.00006023      -0.00010151      -0.00001781        0        0       -1       58       26 
Fe       1.56217786      33.92852442     142.74311202      -0.00007212      -0.00009848      -0.00000828        0        0       -1       58       26 
Fe       0.14768204      35.14667323     144.33174393      -0.00006416      -0.00010836       0.00000344        0        0       -1       58       26 
Fe       1.56229244      36.73835104     143.11866011      -0.00007087      -0.00010777       0.00001785        0        0       -1       58       26 
Fe       0.14779681      37.95736932     144.70571809      -0.00007920      -0.00006746      -0.00000667        0        0       -1       58       26 
Fe       1.56240951      39.54967031     143.49115110      -0.00007106      -0.00008231      -0.00006671        0        0       -1       58       26 
Fe       0.14791565      40.76826141     145.07621690      -0.00008584      -0.00014111       0.00002441        0        0       -1       58       26 
Fe       1.56253458      42.35924121     143.85723202      -0.00006845      -0.00008060       0.00004856        0        0       -1       58       26 
Fe       0.14714631       1.12041728     142.63237686      -0.00005066      -0.00012174       0.00001568        0        0       -1       58       26 
Fe       1.56174770       2.70187928     141.40195457      -0.00005944      -0.00011044       0.00001744        0        0       -1       58       26 
Fe       0.14727530       3.92372157     142.98850694      -0.00006288      -0.00009704      -0.00000462        0        0       -1       58       26 
Fe       1.56188038       5.50784163     141.76007769      -0.00005688      -0.00013186      -0.00001592        0        0       -1       58       26 
Fe       0.14740075       6.72809437     143.35016290      -0.00007193      -0.00006574      -0.00001603        0        0       -1       58       26 
Fe       1.56200481       8.31610568     142.12548621      -0.00006024      -0.00010257      -0.00001338        0        0       -1       58       26 
Fe       0.14751892       9.53198217     143.71893289      -0.00005787      -0.00011069      -0.00002478        0        0       -1       58       26 
Fe       1.56212131      11.12112722     142.49683486      -0.00006465      -0.00006363      -0.00003285        0        0       -1       58       26 
Fe       0.14763139      12.33428788     144.09271558      -0.00004565      -0.00016857       0.00005185        0        0       -1       58       26 
Fe       1.56223936      13.92347899     142.87270113      -0.00005966      -0.00017506       0.00006010        0        0       -1       58       26 
Fe       0.14774424      15.13559787     144.47020097      -0.00004959      -0.00011780       0.00001191        0        0       -1       58       26 
Fe       1.56236015      16.72544384     143.25286775      -0.00006349      -0.00014677      -0.00001303        0        0       -1       58       26 
Fe       0.14786115      17.93683188     144.85080297      -0.00005166      -0.00013237       0.00002997        0        0       -1       58       26 
Fe       1.56248077      19.52638192     143.63506864      -0.00005560      -0.00013621       0.00001585        0        0       -1       58       26 
Fe       0.14798004      20.73827992     145.23231792      -0.00006135      -0.00011533      -0.00002312        0        0       -1       58       26 
Fe       1.56260411      22.32648928     144.01668489      -0.00006679      -0.00011334      -0.00000134        0        0       -1       58       26 
Fe      17.12809680      23.54052858     145.61302135      -0.00007742      -0.00013482       0.00000613       -1        0       -1       58       26 
Fe       1.56272360      25.12847131     144.39822065      -0.00006473      -0.00013181       0.00000494        0        0       -1       58       26 
Fe       0.14821025      26.34477538     145.99368900      -0.00007508      -0.00011599      -0.00001996        0        0       -1       58       26 
Fe       1.56283664      27.93437981     144.78122649      -0.00005577      -0.00012157      -0.00006248        0        0       -1       58       26 
Fe       0.14831716      29.15215451     146.37497265      -0.00007703      -0.00017717       0.00001486        0        0       -1       58       26 
Fe       1.56294936      30.74373953     145.16413385      -0.00008682      -0.00013081       0.00001161        0        0       -1       58       26 
Fe       0.14842359      31.96204607     146.75541252      -0.00008781      -0.00012009      -0.00003063        0        0       -1       58       26 
Fe       1.56305733      33.55449478     145.54398972      -0.00007202      -0.00012074       0.00000899        0        0       -1       58       26 
Fe       0.14852954      34.77295469     147.13315188      -0.00008956      -0.00010642      -0.00000390        0        0       -1       58       26 
Fe       1.56316777      36.36527927     145.91981702      -0.00005923      -0.00012720       0.00000152        0        0       -1       58       26 
Fe       0.14863415      37.58378447     147.50770319      -0.00005508      -0.00016527       0.00001761        0        0       -1       58       26 
Fe       1.56328171      39.17609630     146.29248959      -0.00008313      -0.00015663       0.00001177        0        0       -1       58       26 
Fe       0.14874619      40.39403476     147.87959216      -0.00007759      -0.00013281      -0.00000160        0        0       -1       58       26 
Fe       1.56340219      41.98608345     146.66199046      -0.00009131      -0.00010470       0.00003296        0        0       -1       58       26 
Fe       0.14803648       0.75123805     145.44173275      -0.00006281      -0.00012856       0.00000080        0        0       -1       58       26 
Fe       1.56266043       2.33913401     144.21706159      -0.00006219      -0.00009494      -0.00000276        0        0       -1       58       26 
Fe       0.14815322       3.55596746     145.80401251      -0.00006379      -0.00005644      -0.00001234        0        0       -1       58       26 
Fe       1.56278271       5.14218871     144.57712221      -0.00006395      -0.00007409      -0.00006456        0        0       -1       58       26 
Fe       0.14827011       6.35780420     146.16797009      -0.00006657      -0.00009311      -0.00002058        0        0       -1       58       26 
Fe       1.56290291       7.94432309     144.94264328      -0.00007380      -0.00009761       0.00002574        0        0       -1       58       26 
Fe       0.14838395       9.15855194     146.53657055      -0.00007398      -0.00009339       0.00000883        0        0       -1       58       26 
Fe       1.56301681      10.74593034     145.31394254      -0.00007355      -0.00010348       0.00000685        0        0       -1       58       26 
Fe       0.14849208      11.95913779     146.90962417      -0.00009078      -0.00013032       0.00000948        0        0       -1       58       26 
Fe       1.56312452      13.54698356     145.68926601      -0.00006390      -0.00012681       0.00003498        0        0       -1       58       26 
Fe       0.14859788      14.75980586     147.28590156      -0.00008108      -0.00011843      -0.00002480        0        0       -1       58       26 
Fe       1.56323259      16.34791417     146.06762185      -0.00004903      -0.00010927       0.00001950        0        0       -1       58       26 
Fe       0.14870147      17.56111942     147.66441515      -0.00006818      -0.00012465      -0.00002058        0        0       -1       58       26 
Fe       1.56334459      19.14952659     146.44792049      -0.00006138      -0.00009686       0.00002559        0        0       -1       58       26 
Fe       0.14880622      20.36369004     148.04391138      -0.00007448      -0.00011427      -0.00000401        0        0       -1       58       26 
Fe       1.56345714      21.95222067     146.82832248      -0.00006370      -0.00012658      -0.00000719        0        0       -1       58       26 
Fe       0.14891301      23.16755105     148.42325624      -0.00007917      -0.00009400       0.00002118        0        0       -1       58       26 