11664
Lattice="16.98 0.0 0.0 0.0 62.51674336 0.0 0.0 0.0 124.8641053" Properties=species:S:1:pos:R:3:force:R:3:map_shift:I:3:n_neighb:I:1:Z:I:1 virial="-106.263475 -0.08252034 0.02701958 -0.08252034 -239.02994095 -0.03494949 0.02701958 -0.03494949 -291.51317445" cutoff=5.3 adsorbate_info=T nneightol=1.2 energy=-46705.18325857 pbc="T T T"
Fe      15.43055806      60.27723009       6.80083111       0.00007663       0.00042143       0.00094728       -1       -1        0       58       26 
Fe       1.27301901       3.39176385      93.94038371      -0.00046264      -0.00135930       0.00113395        0        0       -1       56       26 
Fe       1.27277011       6.40502019      93.40768006      -0.00075037      -0.00034346      -0.00042579        0        0       -1       56       26 
Fe      -0.14209773       7.99724547      94.59029563       0.00083459       0.00001255      -0.00118963        0        0       -1       56       26 
Fe      -0.14196479      10.83603127      94.55383575       0.00040096      -0.00026297       0.00020824        0        0       -1       58       26 
Fe      -0.14153631      13.69131897      94.52668522      -0.00134541       0.00019518      -0.00047065        0        0       -1       58       26 
Fe      14.01602219      58.99670426       5.26165151      -0.00159430       0.00003820       0.00006713       -1       -1        0       58       26 
Fe      -0.14144861      16.54543972      94.47230358      -0.00049243      -0.00058226      -0.00127141        0        0       -1       60       26 
Fe       2.68805473      19.02093879      93.94044265      -0.00058287      -0.00117566       0.00110626        0        0       -1       56       26 
Fe       1.27305995      20.67409731      94.82767777      -0.00033352       0.00071100      -0.00026447        0        0       -1       52       26 
Fe       2.68777086      22.03423628      93.40766900      -0.00058595      -0.00027355      -0.00056396        0        0       -1       56       26 
Fe      -0.14174849      22.29262623      95.95465985       0.00008913       0.00082628      -0.00044888        0        0       -1       55       26 
Fe       1.27290436      23.62645470      94.59028753       0.00086278      -0.00008038      -0.00099647        0        0       -1       56       26 
Fe      -0.14175242      25.07676135      95.95419092       0.00018555       0.00003190       0.00063331        0        0       -1       58       26 
Fe       1.27304366      26.46521384      94.55382478       0.00024288      -0.00032256       0.00028273        0        0       -1       58       26 
Fe      -0.14147342      27.91410854      95.95474827      -0.00038491       0.00002442       0.00028865        0        0       -1       58       26 
Fe       1.27343570      29.32053245      94.52665415      -0.00132420       0.00000141      -0.00027319        0        0       -1       58       26 
Fe      -0.14120124      30.79448881      95.96683438      -0.00049813      -0.00060992      -0.00080820        0        0       -1       58       26 
Fe       1.27355994       0.91627566      94.47232904      -0.00056220      -0.00055466      -0.00134989        0        0       -1       60       26 
Fe      -0.14145856       2.50717410      96.14698087       0.00032250       0.00078897       0.00126930        0        0       -1       57       26 
Fe       2.68804769       5.04484508      94.82770877      -0.00035615       0.00104193      -0.00043666        0        0       -1       52       26 
Fe      -0.14140539       5.10608758      97.12899218       0.00023642       0.00034360      -0.00061804        0        0       -1       52       26 
Fe       1.27324581       6.66343574      95.95463080       0.00017771       0.00060606      -0.00020597        0        0       -1       55       26 
Fe      -0.14147409       8.01300849      97.32447132      -0.00034285      -0.00004214       0.00111446        0        0       -1       56       26 
Fe       1.27323676       9.44755582      95.95418556       0.00032823       0.00018518       0.00069654        0        0       -1       58       26 
Fe      -0.14138251      10.83938969      97.35767250       0.00002275       0.00036077       0.00092777        0        0       -1       58       26 
Fe       1.27356244      12.28493552      95.95476170      -0.00058955      -0.00009395       0.00037012        0        0       -1       58       26 
Fe      -0.14116951      13.67978999      97.39186435       0.00039111       0.00013045      -0.00065013        0        0       -1       58       26 
Fe       1.27380170      15.16528707      95.96685090      -0.00051391      -0.00052440      -0.00079078        0        0       -1       58       26 
Fe      -0.14096212      16.50145497      97.49803928      -0.00048452      -0.00103102      -0.00022820        0        0       -1       60       26 
Fe       1.27351707      18.13634242      96.14696722       0.00037450       0.00086062       0.00127230        0        0       -1       57       26 
Fe      -0.14115014      19.12529809      98.06799760       0.00021485       0.00028531       0.00043840        0        0       -1       56       26 
Fe       1.27359399      20.73527050      97.12898733       0.00021059       0.00005337      -0.00082908        0        0       -1       52       26 
Fe      -0.14130185      22.08234778      98.54451487       0.00090777      -0.00014824       0.00088578        0        0       -1       56       26 
Fe       1.27350271      23.64220437      97.32448484      -0.00020249      -0.00005655       0.00102687        0        0       -1       56       26 
Fe      -0.14127487      24.98111851      98.72490890       0.00056068      -0.00030039       0.00066688        0        0       -1       58       26 
Fe       1.27360751      26.46856755      97.35768615      -0.00002149       0.00045066       0.00075340        0        0       -1       58       26 
Fe      -0.14107592      27.81431756      98.79717037       0.00028687       0.00039611       0.00048176        0        0       -1       58       26 
Fe       1.27381905      29.30897953      97.39181229       0.00035689       0.00008664      -0.00029924        0        0       -1       58       26 
Fe      -0.14077287      30.60520866      98.90977508      -0.00058660      -0.00051456      -0.00045683        0        0       -1       58       26 
Fe       1.27406086       0.87225870      97.49803092      -0.00059747      -0.00096132      -0.00022575        0        0       -1       60       26 
Fe      -0.14086017       1.99341275      99.23571230      -0.00000713      -0.00040471      -0.00044515        0        0       -1       56       26 
Fe       1.27384921       3.49613305      98.06801233       0.00025962       0.00018713       0.00051412        0        0       -1       56       26 
Fe      -0.14085611       4.83886297      99.66330290      -0.00057317      -0.00023311      -0.00003267        0        0       -1       57       26 
Fe       1.27372226       6.45319517      98.54455932       0.00083705      -0.00058006       0.00041445        0        0       -1       56       26 
Fe      -0.14100142       7.77984916      99.98841470       0.00042407       0.00029360      -0.00009170        0        0       -1       58       26 
Fe       1.27374568       9.35193171      98.72491698       0.00058984      -0.00019787       0.00043507        0        0       -1       58       26 
Fe      -0.14087557      10.66364134     100.16377422       0.00024139       0.00028648      -0.00011703        0        0       -1       58       26 
Fe       1.27394074      12.18515709      98.79718685       0.00026835       0.00012887       0.00033703        0        0       -1       58       26 
Fe      -0.14067516      13.46363198     100.29798530       0.00005097       0.00044781       0.00049256        0        0       -1       58       26 
Fe       1.27423250      14.97602263      98.90978556      -0.00066876      -0.00042630      -0.00036451        0        0       -1       58       26 
Fe      -0.14063138      16.16218118     100.53744507       0.00022149      -0.00078040      -0.00050040        0        0       -1       58       26 
Fe       1.27412977      17.62261858      99.23573869      -0.00005635      -0.00053391      -0.00064024        0        0       -1       56       26 
Fe      -0.14072989      18.92272665     100.85052858       0.00065695      -0.00128699      -0.00063257        0        0       -1       58       26 
Fe       1.27414123      20.46805132      99.66328949      -0.00072819      -0.00014254       0.00008015        0        0       -1       57       26 
Fe      -0.14068651      21.80911726     101.18405763       0.00008591       0.00047033      -0.00001746        0        0       -1       59       26 
Fe       1.27396491      23.40903570      99.98842968       0.00047687       0.00008746      -0.00029788        0        0       -1       58       26 
Fe      -0.14065387      24.71975438     101.45358983       0.00047145       0.00059666      -0.00025484        0        0       -1       58       26 
Fe       1.27409810      26.29280170     100.16379669       0.00031415       0.00027388      -0.00021390        0        0       -1       58       26 
Fe      -0.14046987      27.56431786     101.65330081       0.00031236      -0.00027033       0.00091416        0        0       -1       58       26 
Fe       1.27431929      29.09282436     100.29796752       0.00008872       0.00024409       0.00042072        0        0       -1       58       26 
Fe      -0.14035143      30.31131035     101.86698146       0.00026416      -0.00033554       0.00062234        0        0       -1       58       26 
Fe       1.27439497       0.53299068     100.53745286       0.00014006      -0.00065978      -0.00063856        0        0       -1       58       26 
Fe      -0.14033750       1.79743822     102.12614150       0.00020322      -0.00035892       0.00046653        0        0       -1       58       26 
Fe       1.27429373       3.29353249     100.85055024       0.00063586      -0.00143925      -0.00077622        0        0       -1       58       26 
Fe      -0.14047724       4.62011586     102.40859134       0.00149955      -0.00070616      -0.00071237        0        0       -1       58       26 
Fe       1.27435165       6.17992754     101.18403205      -0.00002701       0.00039255       0.00002525        0        0       -1       59       26 
Fe      -0.14028243       7.50158550     102.69510667       0.00056625       0.00011619       0.00019677        0        0       -1       58       26 
Fe       1.27437394       9.09060934     101.45354301       0.00045062       0.00050174      -0.00004510        0        0       -1       58       26 
Fe      -0.14013591      10.37203920     102.95349706       0.00042698      -0.00012196       0.00008380        0        0       -1       58       26 
Fe       1.27453725      11.93515090     101.65330614       0.00031739      -0.00052364       0.00098384        0        0       -1       58       26 
Fe      -0.13999861      13.17287157     103.19114002       0.00008154      -0.00003768       0.00099057        0        0       -1       58       26 
Fe       1.27462027      14.68212043     101.86700663       0.00033890      -0.00036876       0.00051658        0        0       -1       58       26 
Fe      -0.14003493      15.93386890     103.43168584       0.00059301      -0.00035460      -0.00039470        0        0       -1       58       26 
Fe       1.27462288      17.42664731     102.12611651       0.00025434      -0.00060369       0.00048528        0        0       -1       58       26 
Fe      -0.13999155      18.72688101     103.68081996       0.00032213      -0.00001717       0.00066772        0        0       -1       58       26 
Fe       1.27449179      20.24931083     102.40859949       0.00147982      -0.00082461      -0.00083517        0        0       -1       58       26 
Fe      -0.13992584      21.56713260     103.94582053       0.00046081      -0.00043243      -0.00043413        0        0       -1       58       26 
Fe       1.27469140      23.13078299     102.69519876       0.00058311      -0.00017153      -0.00020682        0        0       -1       58       26 
Fe      -0.13971063      24.42668144     104.21789865      -0.00003597      -0.00095223       0.00026168        0        0       -1       58       26 
Fe       1.27485137      26.00123156     102.95347304       0.00047159      -0.00019227       0.00049908        0        0       -1       58       26 
Fe      -0.13955770      27.25947696     104.48471424       0.00002758      -0.00063811       0.00042737        0        0       -1       58       26 
Fe       1.27501658      28.80209877     103.19110078       0.00005242      -0.00033563       0.00118655        0        0       -1       58       26 
Fe      -0.13951508      30.05351494     104.73704373       0.00016173       0.00012091       0.00057540        0        0       -1       58       26 
Fe       1.27500379       0.30467062     103.43169115       0.00052613      -0.00034761      -0.00021841        0        0       -1       58       26 
Fe      -0.13950967       1.58631122     104.97718853       0.00064111       0.00019988       0.00006642        0        0       -1       58       26 
Fe       1.27504734       3.09772307     103.68085601       0.00029838      -0.00023709       0.00051759        0        0       -1       58       26 
Fe      -0.13931801       4.40108889     105.22197592      -0.00028565      -0.00001396       0.00028091        0        0       -1       58       26 
Fe       1.27510472       5.93798786     103.94580234       0.00044015      -0.00060196      -0.00054671        0        0       -1       58       26 
Fe      -0.13930567       7.23754392     105.48285748       0.00026779      -0.00093539       0.00054264        0        0       -1       58       26 
Fe       1.27529443       8.79749419     104.21785622      -0.00000045      -0.00124281       0.00025302        0        0       -1       58       26 
Fe      -0.13908208      10.07326944     105.75593426      -0.00033427      -0.00057184      -0.00032287        0        0       -1       58       26 
Fe       1.27543484      11.63026762     104.48473082      -0.00002573      -0.00063828       0.00047604        0        0       -1       58       26 
Fe      -0.13904690      12.89136490     106.02497884       0.00015689       0.00012170       0.00047246        0        0       -1       58       26 
Fe       1.27546535      14.42435409     104.73703016       0.00007701      -0.00005617       0.00070859        0        0       -1       58       26 
Fe      -0.13902469      15.69695454     106.27519236       0.00034238       0.00109295      -0.00005134        0        0       -1       58       26 
Fe       1.27545318      17.21549449     104.97715393       0.00066438       0.00018087       0.00028553        0        0       -1       58       26 
Fe      -0.13880137      18.50534374     106.51442168      -0.00081006       0.00092413       0.00041584        0        0       -1       58       26 
Fe       1.27564102      20.03022650     105.22197255      -0.00019549       0.00002703       0.00020801        0        0       -1       58       26 
Fe      -0.13881134      21.32475675     106.76188440       0.00000355       0.00030677       0.00022128        0        0       -1       58       26 
Fe       1.27567866      22.86672618     105.48287927       0.00026220      -0.00093806       0.00046438        0        0       -1       58       26 
Fe      -0.13872282      24.15089128     107.02608067       0.00045728      -0.00013711       0.00042707        0        0       -1       58       26 
Fe       1.27593344      25.70250793     105.75594387      -0.00043640      -0.00063635      -0.00025842        0        0       -1       58       26 
Fe      -0.13850769      26.97485561     107.29878304      -0.00007996       0.00060191      -0.00007910        0        0       -1       58       26 
Fe       1.27598795      28.52055037     106.02499091       0.00003644       0.00000252       0.00034702        0        0       -1       58       26 
Fe      -0.13845617      29.79363026     107.56210255       0.00067547       0.00091633      -0.00014965        0        0       -1       58       26 
Fe       1.27600597       0.06775346     106.27519906       0.00035853       0.00095932      -0.00005859        0        0       -1       58       26 
Fe      -0.13832813       1.34983191     107.80902037       0.00030112       0.00008072      -0.00000436        0        0       -1       58       26 
Fe       1.27622499       2.87620305     106.51443282      -0.00070545       0.00087446       0.00034619        0        0       -1       58       26 
Fe      -0.13830786       4.16376264     108.05177934       0.00007927       0.00054371       0.00046053        0        0       -1       58       26 
Fe       1.27621117       5.69559831     106.76191444       0.00007068       0.00036081       0.00016146        0        0       -1       58       26 
Fe      -0.13817630       6.98068272     108.30524901      -0.00027240       0.00016657      -0.00013034        0        0       -1       58       26 
Fe       1.27628664       8.52166714     107.02607753       0.00041880       0.00001924       0.00057965        0        0       -1       58       26 
Fe      -0.13809699       9.80084964     108.57140271       0.00032901       0.00057966      -0.00016522        0        0       -1       58       26 
Fe       1.27647236      11.34562234     107.29872434      -0.00008710       0.00088471       0.00021683        0        0       -1       58       26 
Fe      -0.13792730      12.62314118     108.83894013       0.00035511       0.00083217       0.00038714        0        0       -1       58       26 
Fe       1.27650660      14.16450017     107.56208674       0.00074835       0.00044656      -0.00015473        0        0       -1       58       26 
Fe      -0.13759836      15.44471332     109.09630465      -0.00103157       0.00007036       0.00009400        0        0       -1       58       26 
Fe       1.27663140      16.97901676     107.80906559       0.00038707       0.00004525      -0.00034431        0        0       -1       58       26 
Fe      -0.13786853      18.26182763     109.34372931       0.00101259      -0.00004411       0.00010953        0        0       -1       58       26 
Fe       1.27665100      19.79292169     108.05175781       0.00013603       0.00060081       0.00046205        0        0       -1       58       26 
Fe      -0.13785386      21.07578756     109.59226044       0.00083872      -0.00003735      -0.00085636        0        0       -1       58       26 
Fe       1.27679753      22.60984867     108.30518982      -0.00024879       0.00026391       0.00009795        0        0       -1       58       26 
Fe      16.84245786      23.89104715     109.84988627      -0.00049739      -0.00013245       0.00012231       -1        0       -1       58       26 
Fe       1.27691313      25.43002810     108.57139620       0.00028415       0.00074983      -0.00002645        0        0       -1       58       26 
Fe      -0.13744197      26.71080254     110.11438327       0.00035103       0.00026266      -0.00035876        0        0       -1       58       26 
Fe       1.27709612      28.25233838     108.83899300       0.00036461       0.00080726       0.00045269        0        0       -1       58       26 
Fe      -0.13702724      29.53389672     110.37628168      -0.00124324       0.00028933       0.00062746        0        0       -1       58       26 
Fe       1.27742216      -0.18446637     109.09629157      -0.00094696       0.00004207       0.00016062        0        0       -1       58       26 
Fe      -0.13695728       1.09698385     110.63101381      -0.00142677      -0.00034420      -0.00026242        0        0       -1       58       26 
Fe       1.27716935       2.63263289     109.34372097       0.00098426      -0.00016271       0.00004112        0        0       -1       58       26 
Fe      -0.13725815       3.91340894     110.88132950       0.00062166      -0.00023256      -0.00014767        0        0       -1       58       26 
Fe       1.27719378       5.44660649     109.59229978       0.00068582      -0.00001794      -0.00094255        0        0       -1       58       26 
Fe      -0.13715688       6.72722229     111.13442336       0.00021983      -0.00030617      -0.00068673        0        0       -1       58       26 
Fe       1.27747145       8.26187577     109.84992305      -0.00053615       0.00001128      -0.00000258        0        0       -1       58       26 
Fe      -0.13694873       9.54341441     111.39319395      -0.00035171      -0.00021355      -0.00004310        0        0       -1       58       26 
Fe       1.27753815      11.08162164     110.11436991       0.00043984       0.00029276      -0.00044038        0        0       -1       58       26 
Fe      -0.13666190      12.36435762     111.65443519      -0.00101525      -0.00098022      -0.00016395        0        0       -1       58       26 
Fe       1.27794616      13.90469532     110.37624318      -0.00115521       0.00023936       0.00073464        0        0       -1       58       26 
Fe      -0.13657540      15.18686282     111.91307011      -0.00053279      -0.00036809       0.00061557        0        0       -1       58       26 
Fe       1.27801637      16.72618370     110.63099703      -0.00141098      -0.00030869      -0.00004259        0        0       -1       58       26 
Fe      -0.13657016      18.00656346     112.16771208      -0.00058983      -0.00041624       0.00013203        0        0       -1       58       26 
Fe       1.27771123      19.54262495     110.88134325       0.00060000      -0.00025412      -0.00018971        0        0       -1       58       26 
Fe      -0.13657988      20.82233449     112.42105596      -0.00064972      -0.00043058      -0.00074844        0        0       -1       58       26 
Fe       1.27782380      22.35636798     111.13440532       0.00020356      -0.00013062      -0.00070689        0        0       -1       58       26 
Fe      -0.13662812      23.63723158     112.67619253       0.00033018       0.00008862      -0.00003479        0        0       -1       58       26 
Fe       1.27805250      25.17256615     111.39318272      -0.00031751      -0.00009362      -0.00013530        0        0       -1       58       26 
Fe      -0.13633822      26.45517684     112.93432623      -0.00062301       0.00003432       0.00055207        0        0       -1       58       26 
Fe       1.27834273      27.99355356     111.65446599      -0.00090919      -0.00105881      -0.00035866        0        0       -1       58       26 
Fe      -0.13624855      29.27615050     113.19327006      -0.00027910       0.00010032       0.00093319        0        0       -1       58       26 
Fe       1.27843594      30.81605028     111.91311369      -0.00049471      -0.00028517       0.00045527        0        0       -1       58       26 
Fe      -0.13624733       0.83885246     113.45088682       0.00053046      -0.00020058      -0.00042283        0        0       -1       58       26 
Fe       1.27845479       2.37734583     112.16771114      -0.00065512      -0.00019418       0.00022378        0        0       -1       58       26 
Fe      -0.13602824       3.65701334     113.70613647      -0.00092126       0.00054456       0.00028013        0        0       -1       58       26 
Fe       1.27843963       5.19313340     112.42100064      -0.00066963      -0.00030031      -0.00044018        0        0       -1       58       26 
Fe      -0.13612630       6.47330663     113.96112132      -0.00068760      -0.00048682      -0.00039814        0        0       -1       58       26 
Fe       1.27837013       8.00806530     112.67621763       0.00039085       0.00014868      -0.00009779        0        0       -1       58       26 
Fe      -0.13609345       9.28980327     114.21699039      -0.00034323       0.00037313       0.00004724        0        0       -1       58       26 
Fe       1.27864665      10.82599394     112.93435162      -0.00056061       0.00004338       0.00045258        0        0       -1       58       26 
Fe      -0.13598428      12.10863860     114.47448359       0.00015692      -0.00008561      -0.00022487        0        0       -1       58       26 
Fe       1.27874197      13.64695638     113.19325706      -0.00030978       0.00010892       0.00074954        0        0       -1       58       26 
Fe      -0.13595685      14.92877493     114.73217365       0.00073169       0.00070208       0.00081355        0        0       -1       58       26 
Fe       1.27874626      16.46803048     113.45085751       0.00045995      -0.00026803      -0.00034458        0        0       -1       58       26 
Fe      -0.13568024      17.74850468     114.98949361      -0.00058992       0.00000705      -0.00017569        0        0       -1       58       26 
Fe       1.27896088      19.28617981     113.70615374      -0.00090554       0.00066424       0.00044301        0        0       -1       58       26 
Fe      -0.13575679      20.56630128     115.24526313       0.00015252       0.00017537       0.00056473        0        0       -1       58       26 
Fe       1.27886007      22.10249967     113.96114151      -0.00054463      -0.00034696      -0.00026597        0        0       -1       58       26 
Fe      -0.13586638      23.38347689     115.50098445       0.00075972      -0.00055424      -0.00022056        0        0       -1       58       26 
Fe       1.27890939      24.91899337     114.21694593      -0.00024086       0.00039398       0.00033204        0        0       -1       58       26 
Fe      -0.13564392      26.20102538     115.75714289      -0.00051418      -0.00011710      -0.00022110        0        0       -1       58       26 
Fe       1.27903521      27.73782052     114.47448499       0.00013840      -0.00006857      -0.00035684        0        0       -1       58       26 
Fe      -0.13555901      29.01995814     116.01422791      -0.00015217      -0.00028768      -0.00059972        0        0       -1       58       26 
Fe       1.27906078      30.55799453     114.73219327       0.00064562       0.00059569       0.00088448        0        0       -1       58       26 
Fe      -0.13538767       0.58097556     116.27149328      -0.00042702      -0.00011796       0.00028391        0        0       -1       58       26 
Fe       1.27932008       2.11935684     114.98948430      -0.00063106      -0.00001399      -0.00009128        0        0       -1       58       26 
Fe      -0.13535643       3.39986292     116.52851760      -0.00040664      -0.00021304      -0.00011863        0        0       -1       58       26 
Fe       1.27922907       4.93710373     115.24523177       0.00019384       0.00021274       0.00070395        0        0       -1       58       26 
Fe      -0.13547326       6.21778216     116.78453375       0.00050165      -0.00038442       0.00047011        0        0       -1       58       26 
Fe       1.27911165       7.75424297     115.50096764       0.00083471      -0.00043946      -0.00010748        0        0       -1       58       26 
Fe      -0.13545672       9.03549519     117.04063934       0.00050914      -0.00052653      -0.00030655        0        0       -1       58       26 
Fe       1.27932934      10.57182493     115.75715034      -0.00046085       0.00009907      -0.00019887        0        0       -1       58       26 
Fe      -0.13537181      11.85369976     117.29706743      -0.00000488      -0.00059855      -0.00089987        0        0       -1       58       26 
Fe       1.27942302      13.39077138     116.01424950      -0.00016942      -0.00039109      -0.00066346        0        0       -1       58       26 
Fe      -0.13507533      14.67232464     117.55388070      -0.00133319      -0.00025079      -0.00021734        0        0       -1       58       26 
Fe       1.27961519      16.21008881     116.27147253      -0.00046381       0.00018101       0.00057524        0        0       -1       58       26 
Fe      -0.13504398      17.49119296     117.81096437      -0.00049610      -0.00024602      -0.00047351        0        0       -1       58       26 
Fe       1.27966935      19.02902752     116.52850081      -0.00044603      -0.00017279      -0.00003638        0        0       -1       58       26 
Fe      -0.13505183      20.30977214     118.06758816      -0.00007582       0.00011430       0.00090732        0        0       -1       58       26 
Fe       1.27955897      21.84700771     116.78454905       0.00045994      -0.00049464       0.00034264        0        0       -1       58       26 
Fe      -0.13486083      23.12780395     118.32395114      -0.00166271       0.00016278       0.00021523        0        0       -1       58       26 
Fe       1.27957196      24.66471236     117.04067678       0.00046932      -0.00054928      -0.00048614        0        0       -1       58       26 
Fe      -0.13510542      25.94602099     118.58017579       0.00011873      -0.00049325      -0.00015285        0        0       -1       58       26 
Fe       1.27965659      27.48289515     117.29706782      -0.00006953      -0.00066457      -0.00106098        0        0       -1       58       26 
Fe      -0.13509965      28.76435861     118.83683133       0.00071776      -0.00061169      -0.00141818        0        0       -1       58       26 
Fe       1.27993734      30.30154495     117.55384121      -0.00137848      -0.00034651      -0.00015092        0        0       -1       58       26 
Fe      16.84512750       0.32442983     119.09344766      -0.00048013      -0.00031941      -0.00024344       -1        0       -1       58       26 