3480
Lattice="16.98 0.0 0.0 0.0 34.42843592 0.0 0.0 0.0 67.89993189" Properties=species:S:1:pos:R:3:force:R:3:map_shift:I:3:n_neighb:I:1:Z:I:1 nneightol=1.2 virial="-51.94841482 -1.486e-05 -7.32e-06 -1.486e-05 -142.64581304 -3.73e-06 -7.32e-06 -3.73e-06 -34.29162655" energy=-13892.9533306 cutoff=5.3 pbc="T T T"
Fe      14.43304460      29.18065775      15.88069259      -0.00000222       0.00030264      -0.00041371       -1       -1        0       52       26 
Fe       0.28302209       3.04659530      51.00938470      -0.00000078       0.00019003      -0.00071649        0        0       -1       56       26 
Fe      14.43302220      26.21756069      15.70248731      -0.00000119      -0.00010816       0.00015907       -1       -1        0       56       26 
Fe       0.28308460       8.53079032      52.12835792      -0.00000478      -0.00013496       0.00028748        0        0       -1       53       26 
Fe       1.69802144      10.23434659      51.02197208      -0.00000109       0.00032291       0.00012228        0        0       -1       53       26 
Fe       0.28307320      11.44188407      52.49415672      -0.00000417       0.00004554      -0.00029795        0        0       -1       56       26 
Fe      15.84796604      24.86316359      17.18656516       0.00000163       0.00028687      -0.00008234       -1       -1        0       60       26 
Fe       0.28308810      14.09335853      52.84990914      -0.00000478      -0.00061663       0.00062463        0        0       -1       57       26 
Fe       1.69806872      15.64410624      51.72011130      -0.00000387       0.00108776      -0.00049994        0        0       -1       56       26 
Fe       0.28310921      16.93851624      53.33746018      -0.00000560       0.00048677      -0.00081945        0        0       -1       57       26 
Fe       1.69807498       1.42574152      52.24523855      -0.00000477      -0.00085927       0.00004138        0        0       -1       56       26 
Fe       0.28311842       2.63704026      53.76984270      -0.00000622       0.00010670       0.00039251        0        0       -1       58       26 
Fe       1.69807029       4.34734646      52.48806627      -0.00000399       0.00022518       0.00016386        0        0       -1       60       26 
Fe       0.28312741       5.30129723      54.29545168      -0.00000697      -0.00015413      -0.00010254        0        0       -1       56       26 
Fe       1.69810145       6.83036470      53.02479832      -0.00000565       0.00010086      -0.00009205        0        0       -1       56       26 
Fe       0.28314472       8.06925750      54.71884978      -0.00000819       0.00021717      -0.00014573        0        0       -1       57       26 
Fe       1.69811471       9.76069533      53.64842836      -0.00000621      -0.00030754       0.00001414        0        0       -1       56       26 
Fe       0.28314855      10.91627426      55.25029701      -0.00000847      -0.00033114       0.00033868        0        0       -1       58       26 
Fe       1.69811714      12.55310759      54.09271939      -0.00000616       0.00059927      -0.00021297        0        0       -1       58       26 
Fe       0.28315720      13.71740341      55.69297394      -0.00000876       0.00034434      -0.00048889        0        0       -1       58       26 
Fe       1.69813232      15.31100034      54.48275380      -0.00000725      -0.00066070       0.00030008        0        0       -1       58       26 
Fe       0.28317000      16.50700376      56.10524024      -0.00000994      -0.00013526       0.00033120        0        0       -1       58       26 
Fe       1.69814625       0.94007266      54.93276060      -0.00000828       0.00035813       0.00010997        0        0       -1       58       26 
Fe       0.28317987       2.07306141      56.58283736      -0.00001047      -0.00009700      -0.00026191        0        0       -1       58       26 
Fe       1.69815455       3.70151814      55.42959655      -0.00000886      -0.00017270      -0.00025823        0        0       -1       56       26 
Fe       0.28318936       4.85490740      57.06904698      -0.00001105       0.00025238       0.00011812        0        0       -1       58       26 
Fe       1.69816609       6.47759962      55.90093820      -0.00000935      -0.00007091       0.00024350        0        0       -1       58       26 
Fe       0.28319876       7.64197319      57.53156427      -0.00001168      -0.00033542       0.00005120        0        0       -1       58       26 
Fe       1.69817644       9.25976880      56.36520756      -0.00000982       0.00029871      -0.00022436        0        0       -1       58       26 
Fe       0.28320715      10.43809093      57.99854374      -0.00001210       0.00032516      -0.00019208        0        0       -1       58       26 
Fe       1.69818337      12.08378114      56.85885917      -0.00001035      -0.00042780       0.00019641        0        0       -1       58       26 
Fe       0.28321485      13.25188547      58.47161160      -0.00001252      -0.00021552       0.00024943        0        0       -1       58       26 
Fe       1.69819267      14.88683669      57.29984407      -0.00001115       0.00034750      -0.00008346        0        0       -1       58       26 
Fe       0.28322288      16.04022902      58.92563170      -0.00001329       0.00005595      -0.00021465        0        0       -1       58       26 
Fe       1.69820266       0.44615220      57.74648552      -0.00001195      -0.00020674      -0.00008681        0        0       -1       58       26 
Fe       0.28323185       1.60228680      59.38593675      -0.00001420       0.00010862       0.00014820        0        0       -1       58       26 
Fe       1.69821154       3.22686706      58.22393326      -0.00001278       0.00007329       0.00023027        0        0       -1       58       26 
Fe       0.28323931       4.39058516      59.85679751      -0.00001477      -0.00024545      -0.00009859        0        0       -1       58       26 
Fe       1.69822011       6.01871734      58.69687022      -0.00001334       0.00004902      -0.00030482        0        0       -1       58       26 
Fe       0.28324637       7.18455558      60.32414225      -0.00001525       0.00031011       0.00001957        0        0       -1       58       26 
Fe       1.69822793       8.81110825      59.15970560      -0.00001369      -0.00016304       0.00028943        0        0       -1       58       26 
Fe       0.28325258       9.97951500      60.78712604      -0.00001550      -0.00030511       0.00004166        0        0       -1       58       26 
Fe       1.69823502      11.61084883      59.62556366      -0.00001398       0.00021893      -0.00021095        0        0       -1       58       26 
Fe       0.28325855      12.77527864      61.25434045      -0.00001573       0.00020242      -0.00009704        0        0       -1       58       26 
Fe       1.69824172      14.41044401      60.09504646      -0.00001450      -0.00019992       0.00006839        0        0       -1       58       26 
Fe       0.28326477      15.56787037      61.72337604      -0.00001628      -0.00005539       0.00010744        0        0       -1       58       26 
Fe       1.69824953      17.19497238      60.55664313      -0.00001529       0.00012153       0.00006939        0        0       -1       58       26 
Fe       0.28327074       1.14063584      62.18688686      -0.00001705      -0.00008500      -0.00010851        0        0       -1       58       26 
Fe       1.69825640       2.76465047      61.01954958      -0.00001610      -0.00004959      -0.00020160        0        0       -1       58       26 
Fe       0.28327583       3.92906879      62.65000586      -0.00001759       0.00019888       0.00009824        0        0       -1       58       26 
Fe       1.69826230       5.55616135      61.48629984      -0.00001661      -0.00001772       0.00027231        0        0       -1       58       26 
Fe       0.28328020       6.72151100      63.11482649      -0.00001788      -0.00027114      -0.00007158        0        0       -1       58       26 
Fe       1.69826779       8.35054894      61.95132184      -0.00001687       0.00007094      -0.00029563        0        0       -1       58       26 
Fe       0.28328415       9.51450565      63.57975467      -0.00001802       0.00027686       0.00003590        0        0       -1       58       26 
Fe       1.69827274      11.14400968      62.41608778      -0.00001697      -0.00009619       0.00024056        0        0       -1       58       26 
Fe       0.28328774      12.30649394      64.04618765      -0.00001823      -0.00021724      -0.00000860        0        0       -1       58       26 
Fe       1.69827759      13.93666240      62.88449075      -0.00001733       0.00009263      -0.00012171        0        0       -1       58       26 
Fe       0.28329115      15.09850034      64.51439869      -0.00001867       0.00010456      -0.00003074        0        0       -1       58       26 
Fe       1.69828231      16.72800338      63.35232572      -0.00001792      -0.00007870      -0.00001715        0        0       -1       58       26 
Fe       0.28329413       0.67592515      64.98104707      -0.00001913       0.00003170       0.00007048        0        0       -1       58       26 
Fe       1.69828643       2.30321011      63.81606797      -0.00001842       0.00005445       0.00015252        0        0       -1       58       26 
Fe       0.28329638       3.46653748      65.44496048      -0.00001928      -0.00017231      -0.00010101        0        0       -1       58       26 
Fe       1.69828981       5.09356953      64.27928938      -0.00001867      -0.00002255      -0.00025737        0        0       -1       58       26 
Fe       0.28329793       6.25718343      65.90845682      -0.00001914       0.00027523       0.00011065        0        0       -1       58       26 
Fe       1.69829255       7.88539944      64.74363277      -0.00001866      -0.00001737       0.00030080        0        0       -1       58       26 
Fe       0.28329901       9.04831656      66.37286236      -0.00001909      -0.00030288      -0.00009347        0        0       -1       58       26 
Fe       1.69829491      10.67720687      65.20917961      -0.00001881       0.00003513      -0.00027285        0        0       -1       58       26 
Fe       0.28329979      11.83987759      66.83866348      -0.00001928       0.00026013       0.00006916        0        0       -1       58       26 
Fe       1.69829701      13.46902310      65.67620240      -0.00001913      -0.00004097       0.00019182        0        0       -1       58       26 
Fe       0.28330024      14.63204892      67.30588817      -0.00001961      -0.00016637      -0.00003393        0        0       -1       58       26 
Fe       1.69829876      16.26122911      66.14380667      -0.00001956       0.00004289      -0.00006064        0        0       -1       58       26 
Fe       1.69829989       1.83877163      66.60982972      -0.00001975      -0.00003972      -0.00009117        0        0       -1       58       26 
Fe       1.69830024       4.62964068      67.07402677      -0.00001951       0.00003115       0.00024783        0        0       -1       58       26 
Fe       1.69830002       7.42022306      67.53775187      -0.00001920      -0.00001624      -0.00033678        0        0       -1       58       26 
Fe       0.28330020       0.20997241      67.77310719      -0.00001984       0.00002925      -0.00000635        0        0       -1       58       26 
Fe       0.28300812       6.02431657      50.83768580      -0.00000089       0.00000164       0.00004045        0        0       -1       61       26 
Fe       0.28295541       8.69062142      49.83065799       0.00000223      -0.00029604      -0.00040163        0        0       -1       52       26 
Fe       0.28297780      11.65371880      49.65245354       0.00000118       0.00010821       0.00015315        0        0       -1       56       26 
Fe       1.69803395      13.00811565      51.13653115      -0.00000164      -0.00028146      -0.00008300        0        0       -1       60       26 
Fe       0.28299191      14.63142547      49.82412179       0.00000063       0.00005393      -0.00004614        0        0       -1       61       26 
Fe       3.11304450      17.29774712      50.83108654      -0.00000188      -0.00103143       0.00156055        0       -1       -1       52       26 
Fe       0.28291525      -0.07626609      48.53347889       0.00000491      -0.00053265      -0.00113639        0        0       -1       53       26 
Fe       1.69797844       1.62719639      49.63985477       0.00000089       0.00135302      -0.00050341        0        0       -1       53       26 
Fe       0.28292660       2.83482815      48.16762828       0.00000455      -0.00039224       0.00095421        0        0       -1       56       26 
Fe       1.69796598       4.40102809      49.52527461       0.00000143      -0.00047006       0.00031892        0        0       -1       60       26 
Fe       0.28291177       5.48625123      47.81189744       0.00000492       0.00005203      -0.00043696        0        0       -1       57       26 
Fe       1.69793120       7.03706035      48.94171242       0.00000361       0.00031501       0.00009538        0        0       -1       56       26 
Fe       0.28289074       8.33147310      47.32437047       0.00000589       0.00002998       0.00027590        0        0       -1       57       26 
Fe       1.69792500      10.03285199      48.41656403       0.00000422      -0.00021229      -0.00000330        0        0       -1       56       26 
Fe       0.28288161      11.24420390      46.89195567       0.00000636       0.00006722      -0.00008794        0        0       -1       58       26 
Fe       1.69792965      12.95450148      48.17373812       0.00000387      -0.00008954       0.00004744        0        0       -1       60       26 
Fe       0.28287256      13.90846593      46.36637894       0.00000710      -0.00029026      -0.00025595        0        0       -1       56       26 
Fe       1.69789847      15.43748904      47.63700409       0.00000551       0.00061909       0.00026989        0        0       -1       56       26 
Fe       0.28285510      16.67642423      45.94294594       0.00000837       0.00022435       0.00040400        0        0       -1       57       26 
Fe       1.69788507       1.15365472      47.01336247       0.00000618      -0.00069754       0.00031230        0        0       -1       56       26 
Fe       0.28285113       2.30920475      45.41152216       0.00000882       0.00011869      -0.00057975        0        0       -1       58       26 
Fe       1.69788262       3.94604586      46.56912720       0.00000634       0.00060036      -0.00050172        0        0       -1       58       26 
Fe       0.28284257       5.11038268      44.96883702       0.00000883      -0.00022773       0.00055978        0        0       -1       58       26 
Fe       1.69786757       6.70392768      46.17903930       0.00000725      -0.00035594       0.00015613        0        0       -1       58       26 
Fe       0.28283000       7.89994637      44.55657098       0.00000980       0.00016297      -0.00026778        0        0       -1       58       26 
Fe       1.69785382       9.54725493      45.72905260       0.00000810       0.00010238      -0.00015221        0        0       -1       58       26 
Fe       0.28282032      10.68024822      44.07898222       0.00001015      -0.00026634       0.00008011        0        0       -1       58       26 
Fe       1.69784557      12.30867423      45.23221668       0.00000850       0.00015400       0.00022785        0        0       -1       56       26 
Fe       0.28281078      13.46208779      43.59275426       0.00001069       0.00026255       0.00010453        0        0       -1       58       26 
Fe       1.69783386      15.08478514      44.76087094       0.00000931      -0.00033009      -0.00018756        0        0       -1       58       26 
Fe       0.28280112      16.24914719      43.13025282       0.00001171      -0.00016257      -0.00019919        0        0       -1       58       26 
Fe       1.69782327       0.65272784      44.29661313       0.00001025       0.00031332      -0.00004823        0        0       -1       58       26 
Fe       0.28279250       1.83107540      42.66326127       0.00001238      -0.00002144       0.00028012        0        0       -1       58       26 
Fe       1.69781627       3.47674191      43.80292810       0.00001080      -0.00040294       0.00030092        0        0       -1       58       26 
Fe       0.28278483       4.64483684      42.19020505       0.00001287       0.00017465      -0.00037558        0        0       -1       58       26 
Fe       1.69780717       6.27980211      43.36198944       0.00001135       0.00030104      -0.00034519        0        0       -1       58       26 
Fe       0.28277709       7.43321511      41.73617725       0.00001332      -0.00028556       0.00029532        0        0       -1       58       26 
Fe       1.69779747       9.05333104      42.91531676       0.00001164      -0.00010747       0.00031691        0        0       -1       58       26 
Fe       0.28276839      10.20946680      41.27587558       0.00001385       0.00030805      -0.00015422        0        0       -1       58       26 
Fe       1.69778871      11.83405939      42.43788117       0.00001234      -0.00006262      -0.00030192        0        0       -1       58       26 
Fe       0.28276093      12.99777860      40.80501468       0.00001436      -0.00029525       0.00005353        0        0       -1       58       26 
Fe       1.69777997      14.62590117      41.96494528       0.00001310       0.00012741       0.00019843        0        0       -1       58       26 
Fe       0.28275358      15.79175441      40.33766410       0.00001515       0.00017272       0.00005831        0        0       -1       58       26 
Fe       1.69777184       0.20408097      41.50209188       0.00001384      -0.00019135      -0.00002435        0        0       -1       58       26 
Fe       0.28274709       1.37247877      39.87468772       0.00001569      -0.00004776      -0.00013907        0        0       -1       58       26 
Fe       1.69776461       3.00382344      41.03626164       0.00001433       0.00020264      -0.00013497        0        0       -1       58       26 
Fe       0.28274111       4.16827086      39.40746362       0.00001606      -0.00011627       0.00020570        0        0       -1       58       26 
Fe       1.69775808       5.80341863      40.56674736       0.00001459      -0.00020216       0.00030000        0        0       -1       58       26 
Fe       0.28273516       6.96083340      38.93843834       0.00001641       0.00024381      -0.00020245        0        0       -1       58       26 
Fe       1.69775058       8.58794752      40.10518189       0.00001511       0.00010429      -0.00036273        0        0       -1       58       26 
Fe       0.28272949       9.74784260      38.47491988       0.00001687      -0.00033185       0.00017986        0        0       -1       58       26 
Fe       1.69774388      11.37184338      39.64225313       0.00001574      -0.00003943       0.00036927        0        0       -1       58       26 
Fe       0.28272442      12.53625813      38.01180548       0.00001732       0.00032015      -0.00012887        0        0       -1       58       26 
Fe       1.69773783      14.16335642      39.17550970       0.00001632      -0.00003837      -0.00026493        0        0       -1       58       26 
Fe       0.28271975      15.32870587      37.54698363       0.00001792      -0.00024106       0.00004685        0        0       -1       58       26 
Fe       1.69773200      16.95774379      38.71049518       0.00001693       0.00008202       0.00012371        0        0       -1       58       26 
Fe       0.28271547       0.90749339      37.08205044       0.00001839       0.00009152       0.00003650        0        0       -1       58       26 
Fe       1.69772687       2.53698871      38.24570744       0.00001730      -0.00010876       0.00004907        0        0       -1       58       26 
Fe       0.28271189       3.69945999      36.61562445       0.00001859       0.00006428      -0.00008032        0        0       -1       58       26 
Fe       1.69772219       5.32964173      37.77733297       0.00001753       0.00008246      -0.00020622        0        0       -1       58       26 
Fe       0.28270882       6.49149509      36.14740541       0.00001868      -0.00021315       0.00011443        0        0       -1       58       26 
Fe       1.69771781       8.12098103      37.30946907       0.00001785      -0.00006076       0.00032485        0        0       -1       58       26 
Fe       0.28270619       9.28310880      35.68076382       0.00001875       0.00030834      -0.00012512        0        0       -1       58       26 
Fe       1.69771389      10.91040723      36.84575167       0.00001810       0.00003391      -0.00037360        0        0       -1       58       26 
Fe       0.28270395      12.07374273      35.21684657       0.00001889      -0.00034501       0.00013522        0        0       -1       58       26 
Fe       1.69771033      13.70076561      36.38251580       0.00001855      -0.00001230       0.00033616        0        0       -1       58       26 
Fe       0.28270203      14.86437990      34.75335150       0.00001923       0.00028373      -0.00010188        0        0       -1       58       26 
Fe       1.69770718      16.49259662      35.91817127       0.00001903      -0.00002190      -0.00020030        0        0       -1       58       26 
Fe       0.28270058       0.44128830      34.28894760       0.00001967      -0.00014409       0.00005474        0        0       -1       58       26 
Fe       1.69770463       2.07018717      35.45263947       0.00001940       0.00002083       0.00003253        0        0       -1       58       26 
Fe       1.69770275       4.86200144      34.98558986       0.00001944      -0.00001219       0.00013494        0        0       -1       58       26 
Fe       1.69770145       7.65421099      34.51801578       0.00001930      -0.00000216      -0.00025779        0        0       -1       58       26 
Fe       1.69770055      10.44596689      34.05196723       0.00001917       0.00000025       0.00032969        0        0       -1       58       26 
Fe      14.43300809      23.23985409      15.87415586      -0.00000063      -0.00005555      -0.00004684       -1       -1        0       61       26 
Fe       0.28297789       0.39624856      17.05941902       0.00000078      -0.00019601      -0.00072266        0        0        0       56       26 
Fe      14.43295548      20.57353164      16.88111978       0.00000188       0.00104678       0.00157791       -1       -1        0       52       26 
Fe       0.28291538      12.12627093      18.17839156       0.00000479       0.00014114       0.00029623        0        0        0       53       26 
Fe       1.69797855      10.42271539      17.07200612       0.00000108      -0.00033234       0.00012246        0        0        0       53       26 
Fe       0.28292678       9.21517769      18.54419100       0.00000417      -0.00004984      -0.00030331        0        0        0       56       26 
Fe      14.43308477      20.73332742      14.58351336      -0.00000491       0.00053658      -0.00114599       -1       -1        0       53       26 
Fe       0.28291188       6.56370231      18.89994263       0.00000478       0.00063110       0.00063636        0        0        0       57       26 
Fe       1.69793125       5.01295614      17.77014579       0.00000388      -0.00110534      -0.00050947        0        0        0       56       26 
Fe       0.28289076       3.71854582      19.38749474       0.00000561      -0.00049747      -0.00083068        0        0        0       57       26 
Fe       1.69792499       2.01710159      18.29527238       0.00000479       0.00086914       0.00004580        0        0        0       56       26 
Fe       0.28288154       0.80580325      19.81987662       0.00000624      -0.00010523       0.00039529        0        0        0       58       26 
Fe       1.69792968      16.30971509      18.53810036       0.00000400      -0.00022568       0.00016297        0        0        0       60       26 
Fe       0.28287255      15.35576424      20.34548566       0.00000698       0.00015608      -0.00010093        0        0        0       56       26 
Fe       1.69789852      13.82669710      19.07483249       0.00000565      -0.00010627      -0.00009477        0        0        0       56       26 
Fe       0.28285524      12.58780436      20.76888406       0.00000820      -0.00022357      -0.00015078        0        0        0       57       26 
Fe       1.69788526      10.89636585      19.69846227       0.00000620       0.00031541       0.00001679        0        0        0       56       26 
Fe       0.28285141       9.74078676      21.30033069       0.00000849       0.00034212       0.00034645        0        0        0       58       26 
Fe       1.69788283       8.10395459      20.14275386       0.00000616      -0.00061229      -0.00022192        0        0        0       58       26 
Fe       0.28284276       6.93965867      21.74300840       0.00000877      -0.00035500      -0.00049791        0        0        0       58       26 
Fe       1.69786765       5.34606061      20.53278747       0.00000726       0.00067310       0.00030800        0        0        0       58       26 
Fe       0.28282996       4.15005757      22.15527400       0.00000996       0.00014018       0.00033734        0        0        0       58       26 
Fe       1.69785371       2.50277122      20.98279470       0.00000829      -0.00036388       0.00010904        0        0        0       58       26 
Fe       0.28282008       1.36978222      22.63287157       0.00001049       0.00009669      -0.00026532        0        0        0       58       26 
Fe       1.69784540      16.95554338      21.47963064       0.00000887       0.00017351      -0.00025932        0        0        0       56       26 
Fe       0.28281059      15.80215435      23.11908108       0.00001107      -0.00025623       0.00011718        0        0        0       58       26 
Fe       1.69783386      14.17946171      21.95097208       0.00000937       0.00007570       0.00024727        0        0        0       58       26 
Fe       0.28280120      13.01508803      23.58159809       0.00001170       0.00034284       0.00005636        0        0        0       58       26 
Fe       1.69782352      11.39729323      22.41524189       0.00000982      -0.00030835      -0.00023026        0        0        0       58       26 
Fe       0.28279281      10.21897104      24.04857808       0.00001212      -0.00033349      -0.00019835        0        0        0       58       26 
Fe       1.69781659       8.57327993      22.90889289       0.00001036       0.00043827       0.00020332        0        0        0       58       26 
Fe       0.28278511       7.40517582      24.52164539       0.00001253       0.00022158       0.00025512        0        0        0       58       26 
Fe       1.69780729       5.77022525      23.34987830       0.00001116      -0.00035515      -0.00008736        0        0        0       58       26 
Fe       0.28277708       4.61683266      24.97566595       0.00001330      -0.00005803      -0.00021900        0        0        0       58       26 
Fe       1.69779730       2.99669120      23.79651959       0.00001196       0.00021122      -0.00008713        0        0        0       58       26 
Fe       0.28276811       1.84055695      25.43597068       0.00001422      -0.00011119       0.00015071        0        0        0       58       26 
Fe       1.69778841       0.21597658      24.27396715       0.00001279      -0.00007349       0.00023382        0        0        0       58       26 
Fe       0.28276065      16.26647615      25.90683156       0.00001479       0.00025114      -0.00009828        0        0        0       58       26 
Fe       1.69777984      14.63834444      24.74690451       0.00001335      -0.00005342      -0.00030986        0        0        0       58       26 
Fe       0.28275359      13.47250630      26.37417645       0.00001526      -0.00031645       0.00001631        0        0        0       58       26 
Fe       1.69777203      11.84595300      25.20973943       0.00001370       0.00016995       0.00029437        0        0        0       58       26 
Fe       0.28274738      10.67754636      26.83715991       0.00001551       0.00031004       0.00004592        0        0        0       58       26 
Fe       1.69776495       9.04621306      25.67559788       0.00001398      -0.00022552      -0.00021453        0        0        0       58       26 
Fe       0.28274142       7.88178304      27.30437468       0.00001573      -0.00020466      -0.00010080        0        0        0       58       26 
Fe       1.69775825       6.24661736      26.14508047       0.00001451       0.00020440       0.00006940        0        0        0       58       26 
Fe       0.28273520       5.08919128      27.77340999       0.00001628       0.00005416       0.00010964        0        0        0       58       26 
Fe       1.69775043       3.46208930      26.60667706       0.00001530      -0.00012327       0.00007185        0        0        0       58       26 
Fe       0.28272922       2.30220757      28.23692095       0.00001706       0.00008952      -0.00010925        0        0        0       58       26 