9564
Lattice="16.98 0.0 0.0 0.0 56.88229602 0.0 0.0 0.0 112.40144283" Properties=species:S:1:pos:R:3:force:R:3:map_shift:I:3:n_neighb:I:1:Z:I:1 nneightol=1.2 virial="54.1147492 0.0 -0.0 0.0 -74.06005942 -79.70099818 -0.0 -79.70099818 0.21631964" energy=-38282.61193317 cutoff=5.3 pbc="T T T"
Fe      15.56500000      36.54587840      19.17413221      -0.00000000       0.00108681       0.00169035       -1       -1        0       58       26
Fe      -0.00000000       2.78930551      84.49401105       0.00000000       0.00329094       0.00058923        0        0       -1       55       26
Fe      -0.00000000       5.58920043      84.49391289       0.00000000       0.00214623       0.00204571        0        0       -1       58       26
Fe      14.15000000      35.27218969      17.63225379      -0.00000000       0.00084173       0.00051360       -1       -1        0       58       26
Fe      15.56500000      33.73134379      18.91524304      -0.00000000      -0.00037518       0.00185966       -1       -1        0       58       26
Fe       0.00000000      14.02869203      85.66891325      -0.00000000      -0.00184640       0.00053259        0        0       -1       53       26
Fe       1.41500000      15.58463957      84.49982438       0.00000000       0.00056524      -0.00151842        0        0       -1       55       26
Fe      -0.00000000      16.93607019      85.86312115       0.00000000       0.00052207       0.00126891        0        0       -1       56       26
Fe       1.41500000      18.37000505      84.49656365      -0.00000000      -0.00088517       0.00202631        0        0       -1       58       26
Fe       0.00000000      19.76353750      85.89597904      -0.00000000      -0.00190685       0.00106965        0        0       -1       58       26
Fe      14.15000000      32.46412501      17.36108507      -0.00000000      -0.00039269       0.00004102       -1       -1        0       58       26
Fe       0.00000000      22.60515519      85.93058739      -0.00000000       0.00152638       0.00064895        0        0       -1       58       26
Fe      15.56500000      30.91699324      18.63173966      -0.00000000      -0.00021541      -0.00031317       -1       -1        0       58       26
Fe       0.00000000      25.42925313      86.03947907      -0.00000000      -0.00349073      -0.00174678        0        0       -1       60       26
Fe      14.15000000      29.65548645      17.07168782      -0.00000000       0.00046668       0.00152770       -1       -1        0       58       26
Fe       0.00000000      28.05302016      86.61506432      -0.00000000       0.00744009      -0.00406452        0        0       -1       56       26
Fe       1.41500000       1.22717782      85.67043116      -0.00000000      -0.00184152       0.00221802        0        0       -1       52       26
Fe      -0.00000000       2.56982683      87.09332001      -0.00000000       0.00041210       0.00000279        0        0       -1       56       26
Fe       1.41500000       4.14074073      85.86804376      -0.00000000       0.00272278       0.00108106        0        0       -1       56       26
Fe      -0.00000000       5.46588398      87.28576307       0.00000000       0.00251966      -0.00014840        0        0       -1       58       26
Fe       1.41500000       6.97850939      85.91174206      -0.00000000       0.00106315       0.00063564        0        0       -1       58       26
Fe      -0.00000000       8.26341066      87.41684856       0.00000000       0.00048180       0.00089192        0        0       -1       58       26
Fe       1.41500000       9.79421144      86.02043942      -0.00000000       0.00051941       0.00026873        0        0       -1       60       26
Fe      -0.00000000      10.90779170      87.74492234       0.00000000       0.00008182       0.00097284        0        0       -1       56       26
Fe       1.41500000      12.41366909      86.58770681      -0.00000000       0.00025591      -0.00047279        0        0       -1       56       26
Fe       0.00000000      13.75140307      88.18248646      -0.00000000      -0.00067589      -0.00060769        0        0       -1       57       26
Fe       1.41500000      15.37370118      87.07649282       0.00000000      -0.00229921       0.00065876        0        0       -1       56       26
Fe       0.00000000      16.69608875      88.51583732      -0.00000000      -0.00195016       0.00028579        0        0       -1       58       26
Fe       1.41500000      18.27360680      87.25952806      -0.00000000      -0.00054880      -0.00070482        0        0       -1       58       26
Fe       0.00000000      19.58085602      88.69659761      -0.00000000       0.00055692       0.00004939        0        0       -1       58       26
Fe       1.41500000      21.10743805      87.33385785       0.00000000      -0.00136135       0.00136943        0        0       -1       58       26
Fe      -0.00000000      22.37945116      88.83635329       0.00000000      -0.00087229       0.00019241        0        0       -1       58       26
Fe       1.41500000      23.89739540      87.45040811       0.00000000       0.00178666      -0.00226232        0        0       -1       58       26
Fe      -0.00000000      25.07503301      89.08219239       0.00000000       0.00676749      -0.00262699        0        0       -1       58       26
Fe       1.41500000      26.54409649      87.78349465       0.00000000      -0.00340346       0.00007979        0        0       -1       56       26
Fe      -0.00000000      27.83303454      89.40454503       0.00000000      -0.00019131      -0.00221979        0        0       -1       58       26
Fe       1.41500000       0.94627118      88.21573685       0.00000000       0.00074657      -0.00185226        0        0       -1       57       26
Fe       0.00000000       2.26758489      89.75261855      -0.00000000       0.00121870      -0.00067499        0        0       -1       59       26
Fe       1.41500000       3.87855871      88.55462913      -0.00000000       0.00036560      -0.00027323        0        0       -1       58       26
Fe       0.00000000       5.15017487      90.05874857      -0.00000000      -0.00019534       0.00054284        0        0       -1       58       26
Fe       1.41500000       6.72860444      88.77503206       0.00000000       0.00143081       0.00021093        0        0       -1       58       26
Fe      -0.00000000       7.93541304      90.33742462       0.00000000       0.00059203       0.00046404        0        0       -1       58       26
Fe       1.41500000       9.43762336      89.03391641      -0.00000000       0.00037008       0.00100261        0        0       -1       58       26
Fe       0.00000000      10.69119077      90.61705351      -0.00000000      -0.00076430      -0.00006083        0        0       -1       58       26
Fe       1.41500000      12.19786107      89.35479119       0.00000000      -0.00128477       0.00025786        0        0       -1       58       26
Fe       0.00000000      13.51640548      90.91015544      -0.00000000       0.00005262       0.00050417        0        0       -1       59       26
Fe       1.41500000      15.08691364      89.69917188       0.00000000       0.00049889       0.00053127        0        0       -1       59       26
Fe       0.00000000      16.40057940      91.20923165      -0.00000000      -0.00038742      -0.00065655        0        0       -1       58       26
Fe       1.41500000      18.00017242      89.97901323      -0.00000000      -0.00122013       0.00092371        0        0       -1       58       26
Fe      -0.00000000      19.27208620      91.47981248       0.00000000      -0.00116573       0.00113870        0        0       -1       58       26
Fe       1.41500000      20.84416914      90.18753116      -0.00000000       0.00080337      -0.00093065        0        0       -1       58       26
Fe      -0.00000000      22.07114959      91.72854293       0.00000000       0.00072468      -0.00120949        0        0       -1       58       26
Fe       1.41500000      23.58841604      90.40887019      -0.00000000      -0.00067531       0.00019714        0        0       -1       58       26
Fe       0.00000000      24.82709193      91.98010678      -0.00000000       0.00059939      -0.00319979        0        0       -1       58       26
Fe       1.41500000      26.32792546      90.67779747      -0.00000000      -0.00059010      -0.00238141        0        0       -1       58       26
Fe       0.00000000      27.60978285      92.24515676       0.00000000       0.00070132       0.00102429        0        0       -1       58       26
Fe       1.41500000       0.69868558      90.97641174       0.00000000       0.00216156      -0.00008006        0        0       -1       58       26
Fe      -0.00000000       1.98967039      92.53662358       0.00000000      -0.00102460      -0.00030786        0        0       -1       58       26
Fe       1.41500000       3.55706821      91.29332643      -0.00000000       0.00075276      -0.00134413        0        0       -1       58       26
Fe      -0.00000000       4.82004125      92.85106877       0.00000000       0.00084534      -0.00005194        0        0       -1       58       26
Fe       1.41500000       6.38762990      91.60763427       0.00000000      -0.00068897       0.00053893        0        0       -1       58       26
Fe       0.00000000       7.63803286      93.16079583      -0.00000000      -0.00006119       0.00163811        0        0       -1       58       26
Fe       1.41500000       9.17788514      91.89736615       0.00000000      -0.00019284       0.00034999        0        0       -1       58       26
Fe       0.00000000      10.45052040      93.44091844      -0.00000000       0.00091584      -0.00049273        0        0       -1       58       26
Fe       1.41500000      11.98143979      92.16771635      -0.00000000       0.00025755       0.00031086        0        0       -1       58       26
Fe      -0.00000000      13.27434085      93.70745156       0.00000000      -0.00030979      -0.00092237        0        0       -1       58       26
Fe       1.41500000      14.82519652      92.44655127      -0.00000000      -0.00161041      -0.00073132        0        0       -1       58       26
Fe      -0.00000000      16.11364067      93.98498096       0.00000000      -0.00054304       0.00173542        0        0       -1       58       26
Fe       1.41500000      17.68609474      92.73310269      -0.00000000       0.00143504       0.00003353        0        0       -1       58       26
Fe       0.00000000      18.94997245      94.27448140      -0.00000000      -0.00052915      -0.00107297        0        0       -1       58       26
Fe       1.41500000      20.51848281      93.01412590       0.00000000       0.00014527       0.00040131        0        0       -1       58       26
Fe       0.00000000      21.76560394      94.55976053      -0.00000000       0.00137013      -0.00118529        0        0       -1       58       26
Fe       1.41500000      23.30898551      93.28009682       0.00000000      -0.00124124      -0.00016219        0        0       -1       58       26
Fe       0.00000000      24.56467930      94.82740619      -0.00000000      -0.00070913       0.00049812        0        0       -1       58       26
Fe       1.41500000      26.09121895      93.53654191       0.00000000       0.00062679      -0.00158337        0        0       -1       58       26
Fe      -0.00000000      27.36046683      95.08910110       0.00000000      -0.00232367      -0.00092786        0        0       -1       58       26
Fe       1.41500000       0.44893338      93.80513964       0.00000000      -0.00085244      -0.00221225        0        0       -1       58       26
Fe       0.00000000       1.72098922      95.36572231      -0.00000000      -0.00026510      -0.00082300        0        0       -1       58       26
Fe       1.41500000       3.26287671      94.09985482      -0.00000000      -0.00058698       0.00154433        0        0       -1       58       26
Fe       0.00000000       4.53302881      95.66144315      -0.00000000      -0.00204480       0.00015358        0        0       -1       58       26
Fe       1.41500000       6.08356947      94.40936096       0.00000000       0.00051714       0.00005959        0        0       -1       58       26
Fe       0.00000000       7.35564719      95.96026187      -0.00000000       0.00153592      -0.00058272        0        0       -1       58       26
Fe       1.41500000       8.90719539      94.70522591       0.00000000      -0.00047568       0.00070534        0        0       -1       58       26
Fe       0.00000000      10.18316103      96.24520111      -0.00000000       0.00069006       0.00099299        0        0       -1       58       26
Fe       1.41500000      11.73097797      94.97854478       0.00000000       0.00057924       0.00000442        0        0       -1       58       26
Fe       0.00000000      13.00793635      96.51841928      -0.00000000      -0.00000646       0.00112197        0        0       -1       58       26
Fe       1.41500000      14.55709337      95.24851765       0.00000000       0.00254209      -0.00048660        0        0       -1       58       26
Fe       0.00000000      15.82977742      96.79496680      -0.00000000       0.00067727      -0.00154213        0        0       -1       58       26
Fe       1.41500000      17.38557896      95.53147103       0.00000000      -0.00209372      -0.00079174        0        0       -1       58       26
Fe       0.00000000      18.65064242      97.08172737       0.00000000       0.00153233       0.00047141        0        0       -1       58       26
Fe       1.41500000      20.20858101      95.82250858       0.00000000      -0.00058631       0.00075816        0        0       -1       58       26
Fe      -0.00000000      21.47032489      97.37034556       0.00000000      -0.00117853      -0.00051511        0        0       -1       58       26
Fe       1.41500000      23.02248462      96.10492331      -0.00000000       0.00072975       0.00005423        0        0       -1       58       26
Fe      -0.00000000      24.28458143      97.64998907       0.00000000      -0.00183414      -0.00005550        0        0       -1       58       26
Fe       1.41500000      25.82720877      96.37390058      -0.00000000      -0.00025636      -0.00086313        0        0       -1       58       26
Fe      -0.00000000      27.09101625      97.92235279       0.00000000      -0.00030546      -0.00000917        0        0       -1       58       26
Fe       1.41500000       0.18651758      96.64307736      -0.00000000      -0.00238375       0.00051009        0        0       -1       58       26
Fe      -0.00000000       1.45356345      98.19753766       0.00000000      -0.00229512       0.00013129        0        0       -1       58       26
Fe       1.41500000       2.99102221      96.92519000       0.00000000      -0.00127302      -0.00171649        0        0       -1       58       26
Fe      -0.00000000       4.26302643      98.48042954       0.00000000      -0.00011117      -0.00109548        0        0       -1       58       26
Fe       1.41500000       5.80665959      97.21669598      -0.00000000      -0.00132742       0.00053419        0        0       -1       58       26
Fe      -0.00000000       7.08241764      98.76687163       0.00000000      -0.00152644      -0.00086947        0        0       -1       58       26
Fe       1.41500000       8.63179818      97.50598323      -0.00000000       0.00022208      -0.00022569        0        0       -1       58       26
Fe      -0.00000000       9.90670851      99.05098627       0.00000000      -0.00076601      -0.00032533        0        0       -1       58       26
Fe       1.41500000      11.45781163      97.78651860      -0.00000000       0.00135696      -0.00025499        0        0       -1       58       26
Fe      -0.00000000      12.72891813      99.33107459       0.00000000       0.00117467       0.00060654        0        0       -1       58       26
Fe       1.41500000      14.27915877      98.06305143      -0.00000000      -0.00012043       0.00091082        0        0       -1       58       26
Fe       0.00000000      15.54684801      99.61113262      -0.00000000       0.00194948       0.00040423        0        0       -1       58       26
Fe       1.41500000      17.09718028      98.34455397      -0.00000000       0.00099400       0.00152560        0        0       -1       58       26
Fe      -0.00000000      18.36397686      99.89468062       0.00000000      -0.00031846       0.00003528        0        0       -1       58       26
Fe       1.41500000      19.91606190      98.63172219      -0.00000000      -0.00057632      -0.00117286        0        0       -1       58       26
Fe      -0.00000000      21.18227634     100.18047595       0.00000000      -0.00019952       0.00093404        0        0       -1       58       26
Fe       1.41500000      22.73450521      98.91730755       0.00000000      -0.00015731      -0.00086473        0        0       -1       58       26
Fe      16.98000000      23.99963145     100.46444955      -0.00000000      -0.00117493       0.00002604       -1        0       -1       58       26
Fe       1.41500000      25.54807189      99.19642526       0.00000000      -0.00108700       0.00109011        0        0       -1       58       26
Fe       0.00000000      26.81253539     100.74440752      -0.00000000      -0.00105978      -0.00045243        0        0       -1       58       26
Fe       1.41500000      28.35583087      99.47236481       0.00000000      -0.00070218      -0.00024545        0        0       -1       58       26
Fe      -0.00000000       1.18157936     101.02207263       0.00000000      -0.00083384      -0.00017583        0        0       -1       58       26
Fe       1.41500000       2.72267004      99.75014354       0.00000000      -0.00150454      -0.00001354        0        0       -1       58       26
Fe      -0.00000000       3.99353466     101.30051070       0.00000000      -0.00096962      -0.00046931        0        0       -1       58       26
Fe       1.41500000       5.53681095     100.03175984      -0.00000000      -0.00168177      -0.00122284        0        0       -1       58       26
Fe       0.00000000       6.80989220     101.58118948      -0.00000000      -0.00079520      -0.00066522        0        0       -1       58       26
Fe       1.41500000       8.35699367     100.31504069       0.00000000      -0.00092152      -0.00059277        0        0       -1       58       26
Fe       0.00000000       9.62927799     101.86326766      -0.00000000      -0.00058238      -0.00012107        0        0       -1       58       26
Fe       1.41500000      11.17858886     100.59736250       0.00000000       0.00024629       0.00057262        0        0       -1       58       26
Fe      -0.00000000      12.44825794     102.14550654       0.00000000      -0.00040002      -0.00136845        0        0       -1       58       26
Fe       1.41500000      13.99750361     100.87851393       0.00000000       0.00006979       0.00025182        0        0       -1       58       26
Fe      -0.00000000      15.26531867     102.42710559       0.00000000       0.00052540       0.00146001        0        0       -1       58       26
Fe       1.41500000      16.81409072     101.16030407       0.00000000       0.00123454       0.00017672        0        0       -1       58       26
Fe      -0.00000000      18.08152376     102.70958526       0.00000000       0.00068515       0.00072884        0        0       -1       58       26
Fe       1.41500000      19.63100649     101.44413329       0.00000000       0.00103115       0.00100904        0        0       -1       58       26
Fe       0.00000000      20.89842051     102.99321007      -0.00000000      -0.00052942       0.00141891        0        0       -1       58       26
Fe       1.41500000      22.44883245     101.72897412      -0.00000000      -0.00034072       0.00009212        0        0       -1       58       26
Fe      -0.00000000      23.71524805     103.27760655       0.00000000       0.00084732      -0.00042827        0        0       -1       58       26
Fe       1.41500000      25.26503457     102.01230300      -0.00000000      -0.00149881       0.00024772        0        0       -1       58       26
Fe      -0.00000000      26.53133950     103.56018279       0.00000000      -0.00106190       0.00070331        0        0       -1       58       26
Fe       1.41500000      28.07855804     102.29245232      -0.00000000      -0.00027784       0.00061440        0        0       -1       58       26
Fe      -0.00000000       0.90481505     103.84036076       0.00000000      -0.00019224      -0.00037852        0        0       -1       58       26
Fe       1.41500000       2.45021000     102.57086971       0.00000000      -0.00113904       0.00022850        0        0       -1       58       26
Fe      -0.00000000       3.71948058     104.11918882       0.00000000      -0.00060130      -0.00035622        0        0       -1       58       26
Fe       1.41500000       5.26460733     102.84966818       0.00000000      -0.00076301      -0.00061327        0        0       -1       58       26
Fe      -0.00000000       6.53513964     104.39840073       0.00000000      -0.00039075      -0.00005439        0        0       -1       58       26
Fe       1.41500000       8.08157973     103.13021994      -0.00000000       0.00002263      -0.00068157        0        0       -1       58       26
Fe      -0.00000000       9.35207061     104.67946979       0.00000000      -0.00110339      -0.00128607        0        0       -1       58       26
Fe       1.41500000      10.89966168     103.41223346      -0.00000000      -0.00090941      -0.00142194        0        0       -1       58       26
Fe      -0.00000000      12.16894362     104.96146672       0.00000000       0.00004004       0.00000884        0        0       -1       58       26
Fe       1.41500000      13.71688275     103.69423971      -0.00000000       0.00059366       0.00063777        0        0       -1       58       26
Fe       0.00000000      14.98514622     105.24355106      -0.00000000      -0.00063232      -0.00093965        0        0       -1       58       26
Fe       1.41500000      16.53310114     103.97629163      -0.00000000      -0.00025680       0.00020535        0        0       -1       58       26
Fe       0.00000000      17.80097055     105.52541070      -0.00000000      -0.00018964       0.00130039        0        0       -1       58       26
Fe       1.41500000      19.34915816     104.25876179      -0.00000000       0.00082587       0.00104388        0        0       -1       58       26
Fe      -0.00000000      20.61662109     105.80816084       0.00000000       0.00113308      -0.00010740        0        0       -1       58       26
Fe       1.41500000      22.16559980     104.54234718      -0.00000000      -0.00083342       0.00175324        0        0       -1       58       26
Fe      -0.00000000      23.43301869     106.09125977       0.00000000      -0.00023020       0.00169484        0        0       -1       58       26
Fe       1.41500000      24.98219292     104.82598006       0.00000000       0.00087344       0.00000602        0        0       -1       58       26
Fe       0.00000000      26.24961736     106.37415115      -0.00000000       0.00111884       0.00032971        0        0       -1       58       26
Fe       1.41500000      27.79847379     105.10797201       0.00000000      -0.00027966       0.00013820        0        0       -1       58       26
Fe      -0.00000000       0.62524986     106.65547072       0.00000000       0.00059429       0.00052729        0        0       -1       58       26
Fe       1.41500000       2.17301679     105.38797844      -0.00000000       0.00091194      -0.00004306        0        0       -1       58       26
Fe       0.00000000       3.44182972     106.93558171      -0.00000000      -0.00009472      -0.00081733        0        0       -1       58       26
Fe       1.41500000       4.98886293     105.66730342      -0.00000000       0.00005786      -0.00089772        0        0       -1       58       26
Fe       0.00000000       6.25811058     107.21549959      -0.00000000      -0.00023746      -0.00061510        0        0       -1       58       26
Fe       1.41500000       7.80503822     105.94726499       0.00000000      -0.00095892      -0.00071500        0        0       -1       58       26
Fe       0.00000000       9.07408868     107.49639701      -0.00000000       0.00024727      -0.00038750        0        0       -1       58       26
Fe       1.41500000      10.62155026     106.22891964       0.00000000      -0.00093626      -0.00031824        0        0       -1       58       26
Fe       0.00000000      11.89045598     107.77864045      -0.00000000      -0.00140215      -0.00166205        0        0       -1       58       26
Fe       1.41500000      13.43766363     106.51111011       0.00000000      -0.00081719      -0.00162418        0        0       -1       58       26
Fe       0.00000000      14.70610041     108.06057603      -0.00000000      -0.00013270      -0.00039979        0        0       -1       58       26
Fe       1.41500000      16.25322043     106.79270827       0.00000000       0.00045980       0.00085275        0        0       -1       58       26
Fe       0.00000000      17.52109676     108.34217038      -0.00000000       0.00041376      -0.00005906        0        0       -1       58       26
Fe       1.41500000      19.06864655     107.07482526       0.00000000      -0.00044717       0.00039772        0        0       -1       58       26
Fe       0.00000000      20.33649737     108.62399021      -0.00000000       0.00039095       0.00107184        0        0       -1       58       26
Fe       1.41500000      21.88433868     107.35727984       0.00000000       0.00147032       0.00049392        0        0       -1       58       26
Fe      -0.00000000      23.15239383     108.90624889       0.00000000       0.00076794       0.00012207        0        0       -1       58       26
Fe       1.41500000      24.70073943     107.64000813       0.00000000       0.00096576       0.00040487        0        0       -1       58       26
Fe       0.00000000      25.96915045     109.18825976      -0.00000000       0.00064386      -0.00046703        0        0       -1       58       26
Fe       1.41500000      27.51773801     107.92201002       0.00000000       0.00112296      -0.00045262        0        0       -1       58       26
Fe      16.98000000       0.34532431     109.46947004      -0.00000000       0.00143163       0.00085886       -1        0       -1       58       26
Fe       1.41500000       1.89385839     108.20287811       0.00000000       0.00019337      -0.00001905        0        0       -1       58       26
Fe      16.98000000       3.16257447     109.75041185       0.00000000       0.00081638       0.00048718       -1        0       -1       58       26
Fe       1.41500000       4.71067280     108.48326247       0.00000000       0.00013741       0.00078540        0        0       -1       58       26
Fe      -0.00000000       5.97918050     110.03165065       0.00000000      -0.00002620      -0.00108475        0        0       -1       58       26
Fe       1.41500000       7.52676910     108.76416526       0.00000000       0.00027263      -0.00082997        0        0       -1       58       26
Fe       0.00000000       8.79542954     110.31288669      -0.00000000       0.00019536      -0.00011083        0        0       -1       58       26
Fe       1.41500000      10.34286715     109.04570694       0.00000000       0.00017977      -0.00108737        0        0       -1       58       26
Fe      16.98000000      11.61142319     110.59508322       0.00000000       0.00066216      -0.00053757       -1        0       -1       58       26
Fe       1.41500000      13.15906536     109.32824806      -0.00000000      -0.00094792      -0.00125196        0        0       -1       58       26
Fe      -0.00000000      14.42741296     110.87793161       0.00000000      -0.00096362      -0.00192294        0        0       -1       58       26
Fe       1.41500000      15.97428981     109.61022708      -0.00000000      -0.00023981      -0.00127412        0        0       -1       58       26
Fe       0.00000000      17.24254476     111.15966207      -0.00000000      -0.00006823      -0.00128600        0        0       -1       58       26
Fe       1.41500000      18.78914636     109.89139542      -0.00000000       0.00073127       0.00089771        0        0       -1       58       26
Fe       0.00000000      20.05739947     111.44054742      -0.00000000       0.00035771       0.00053952        0        0       -1       58       26
Fe       1.41500000      21.60458829     110.17306303      -0.00000000       0.00074039       0.00000362        0        0       -1       58       26
Fe      -0.00000000      22.87320468     111.72161247       0.00000000       0.00117608       0.00073248        0        0       -1       58       26
Fe       1.41500000      24.42099698     110.45474645       0.00000000       0.00044232      -0.00004341        0        0       -1       58       26
Fe      16.98000000      25.69010401     112.00275324       0.00000000       0.00067639       0.00035839       -1        0       -1       58       26
Fe       1.41500000      27.23809957     110.73594408      -0.00000000       0.00104986       0.00144505        0        0       -1       58       26
Fe       1.41500000       1.61429598     111.01715682      -0.00000000      -0.00022424      -0.00021175        0        0       -1       58       26