4704
Lattice="16.98 0.0 0.0 0.0 40.02224382 0.0 0.0 0.0 78.80903892" Properties=species:S:1:pos:R:3:force:R:3:map_shift:I:3:n_neighb:I:1:Z:I:1 virial="-38.65334001 -0.00033203 0.00075292 -0.00033203 -134.67022535 18.38975464 0.00075292 18.38975464 -47.6327257" cutoff=5.3 adsorbate_info=T nneightol=1.2 energy=-18798.62430356 pbc="T T T"
Fe      16.69798550      37.82890247      39.20230075      -0.00001319      -0.00000347       0.00000117       -1       -1        0       58       26 
Fe      13.86771081      29.09514676      17.90609029      -0.00009058       0.00000641      -0.00000006       -1       -1        0       53       26 
Fe      -0.28233076       5.69096015      59.38443426       0.00000555      -0.00000871      -0.00000382        0        0       -1       56       26 
Fe      -0.28233578       8.65114577      59.90430456      -0.00000017      -0.00000539      -0.00000019        0        0       -1       56       26 
Fe      15.28274333      27.76024977      19.28005825       0.00000023      -0.00003821       0.00002707       -1       -1        0       56       26 
Fe      -0.28233766      11.52127697      60.16799077       0.00000470      -0.00000547      -0.00000090        0        0       -1       58       26 
Fe      13.86770441      26.25050986      17.90413469       0.00001290       0.00000848       0.00000306       -1       -1        0       58       26 
Fe      -0.28235061      14.13922246      60.60624452       0.00000233      -0.00000979      -0.00000046        0        0       -1       56       26 
Fe       1.13267351      15.61333880      59.30672182       0.00001253      -0.00000732      -0.00000503        0        0       -1       56       26 
Fe      -0.28236435      16.94097050      60.96581833       0.00000351      -0.00000273      -0.00000272        0        0       -1       57       26 
Fe       1.13266308      18.61065928      59.86802960      -0.00000659      -0.00000503      -0.00000115        0        0       -1       56       26 
Fe      -0.28236636      19.84721168      61.39480124       0.00000344      -0.00001142      -0.00000537        0        0       -1       58       26 
Fe       1.13266124       1.48231696      60.16464598       0.00001486      -0.00000787      -0.00000531        0        0       -1       58       26 
Fe      -0.28236999       2.60885500      61.77771280       0.00000233       0.00000024       0.00000410        0        0       -1       58       26 
Fe       1.13265270       4.14470088      60.52951890       0.00000069      -0.00000352      -0.00000385        0        0       -1       56       26 
Fe      -0.28238050       5.36773963      62.16209522       0.00000474      -0.00000759      -0.00000498        0        0       -1       58       26 
Fe       1.13263942       6.97395585      61.00292344       0.00000391      -0.00000838      -0.00000387        0        0       -1       57       26 
Fe      -0.28238812       8.21284042      62.58678883       0.00000334      -0.00000504      -0.00000292        0        0       -1       58       26 
Fe       1.13263487       9.87517681      61.42155526       0.00000322      -0.00000352      -0.00000287        0        0       -1       58       26 
Fe      -0.28239332      11.02199333      63.02382135       0.00000562      -0.00000115      -0.00000214        0        0       -1       58       26 
Fe       1.13262960      12.60343431      61.81077957      -0.00000030      -0.00000580      -0.00000044        0        0       -1       56       26 
Fe      -0.28240141      13.80356268      63.40909808       0.00000464      -0.00000770      -0.00000284        0        0       -1       58       26 
Fe       1.13261831      15.37964440      62.18008217       0.00000557      -0.00000348      -0.00000412        0        0       -1       58       26 
Fe      -0.28240973      16.60067068      63.77543709       0.00000587      -0.00000079      -0.00000518        0        0       -1       58       26 
Fe       1.13261033      18.19784891      62.56268793       0.00000074      -0.00000753      -0.00000403        0        0       -1       58       26 
Fe      -0.28241593      19.40302926      64.17353794       0.00000613      -0.00000699      -0.00000228        0        0       -1       58       26 
Fe       1.13260567       1.01062982      62.98995875       0.00000719      -0.00000258      -0.00000079        0        0       -1       58       26 
Fe      -0.28242123       2.19885923      64.59101636       0.00000614      -0.00000289      -0.00000578        0        0       -1       58       26 
Fe       1.13259962       3.79432484      63.38379342       0.00000171      -0.00000601      -0.00000327        0        0       -1       58       26 
Fe      -0.28242820       4.99729460      64.98242980       0.00000723      -0.00000400      -0.00000050        0        0       -1       58       26 
Fe       1.13259136       6.59178622      63.77082318       0.00000614      -0.00000329      -0.00000245        0        0       -1       58       26 
Fe      -0.28243472       7.79217645      65.38378474       0.00000652      -0.00000293      -0.00000402        0        0       -1       58       26 
Fe       1.13258511       9.40169369      64.19820689       0.00000639      -0.00000473      -0.00000120        0        0       -1       58       26 
Fe      -0.28244058      10.59920566      65.80349732       0.00000750      -0.00000473      -0.00000061        0        0       -1       58       26 
Fe       1.13257861      12.21019309      64.61775837       0.00000615      -0.00000282      -0.00000350        0        0       -1       58       26 
Fe      -0.28244691      13.41134991      66.20747907       0.00000716      -0.00000079      -0.00000165        0        0       -1       58       26 
Fe       1.13257155      15.01090757      64.99709935       0.00000833      -0.00000401       0.00000003        0        0       -1       58       26 
Fe      -0.28245322      16.21017322      66.59344719       0.00000788      -0.00000364      -0.00000044        0        0       -1       58       26 
Fe       1.13256459      17.80434919      65.37909054       0.00000609      -0.00000205      -0.00000386        0        0       -1       58       26 
Fe      -0.28245930      19.00352219      66.98520784       0.00000795      -0.00000258      -0.00000328        0        0       -1       58       26 
Fe       1.13255864       0.59139252      65.78292093       0.00000895      -0.00000596      -0.00000357        0        0       -1       58       26 
Fe      -0.28246460       1.79288427      67.38741825       0.00000825      -0.00000265      -0.00000048        0        0       -1       58       26 
Fe       1.13255314       3.39769807      66.18940246       0.00000690      -0.00000022      -0.00000152        0        0       -1       58       26 
Fe      -0.28247012       4.59522288      67.79106045       0.00000876      -0.00000266      -0.00000417        0        0       -1       58       26 
Fe       1.13254681       6.19461263      66.58704657       0.00000859      -0.00000571      -0.00000321        0        0       -1       58       26 
Fe      -0.28247540       7.39320193      68.19210692       0.00000880      -0.00000242      -0.00000017        0        0       -1       58       26 
Fe       1.13254117       8.99276792      66.99261535       0.00000793      -0.00000062      -0.00000275        0        0       -1       58       26 
Fe      -0.28248039      10.19610460      68.59604230       0.00000934      -0.00000057      -0.00000309        0        0       -1       58       26 
Fe       1.13253580      11.80251183      67.40213252       0.00000800      -0.00000385      -0.00000024        0        0       -1       58       26 
Fe      -0.28248534      13.00390766      69.00073421       0.00000952      -0.00000307      -0.00000066        0        0       -1       58       26 
Fe       1.13253015      14.61007645      67.80187686       0.00000890      -0.00000024      -0.00000288        0        0       -1       58       26 
Fe      -0.28249036      15.80743592      69.40015885       0.00001006       0.00000075      -0.00000186        0        0       -1       58       26 
Fe       1.13252432      17.40733565      68.19402864       0.00000835      -0.00000310      -0.00000040        0        0       -1       58       26 
Fe      -0.28249526      18.60545298      69.79552485       0.00001021      -0.00000278      -0.00000098        0        0       -1       58       26 
Fe       1.13251923       0.19253422      68.58955864       0.00000969      -0.00000073      -0.00000299        0        0       -1       58       26 
Fe      -0.28249957       1.39224394      70.19318222       0.00001055       0.00000068      -0.00000252        0        0       -1       58       26 
Fe       1.13251435       2.99279043      68.99116587       0.00000884      -0.00000342      -0.00000173        0        0       -1       58       26 
Fe      -0.28250376       4.19230044      70.59459555       0.00001087      -0.00000300      -0.00000193        0        0       -1       58       26 
Fe       1.13250957       5.79353967      69.39395293       0.00001017      -0.00000030      -0.00000246        0        0       -1       58       26 
Fe      -0.28250772       6.99358826      70.99628440       0.00001100       0.00000070      -0.00000197        0        0       -1       58       26 
Fe       1.13250505       8.59434045      69.79514237       0.00000998      -0.00000260      -0.00000086        0        0       -1       58       26 
Fe      -0.28251144       9.79571368      71.39724623       0.00001126      -0.00000188      -0.00000130        0        0       -1       58       26 
Fe       1.13250080      11.39841658      70.19775628       0.00001053       0.00000029      -0.00000241        0        0       -1       58       26 
Fe      -0.28251497      12.59916657      71.79941081       0.00001148       0.00000092      -0.00000143        0        0       -1       58       26 
Fe       1.13249645      14.20343972      70.60066585       0.00001089      -0.00000166       0.00000005        0        0       -1       58       26 
Fe      -0.28251855      15.40245992      72.20136872       0.00001166      -0.00000068       0.00000034        0        0       -1       58       26 
Fe       1.13249222      17.00525269      71.00014388       0.00001089       0.00000078      -0.00000161        0        0       -1       58       26 
Fe      -0.28252181      18.20357098      72.60101418       0.00001187       0.00000126      -0.00000138        0        0       -1       58       26 
Fe       1.13248829      19.80404415      71.39742905       0.00001161      -0.00000130      -0.00000020        0        0       -1       58       26 
Fe      -0.28252475       0.99186199      72.99952526       0.00001198      -0.00000077      -0.00000036        0        0       -1       58       26 
Fe       1.13248478       2.59179199      71.79637818       0.00001127       0.00000017      -0.00000300        0        0       -1       58       26 
Fe      -0.28252745       3.79166674      73.39899247       0.00001229       0.00000160      -0.00000084        0        0       -1       58       26 
Fe       1.13248139       5.39240493      72.19726241       0.00001196      -0.00000056      -0.00000011        0        0       -1       58       26 
Fe      -0.28252991       6.59276302      73.79942093       0.00001234      -0.00000124      -0.00000242        0        0       -1       58       26 
Fe       1.13247829       8.19417772      72.59821819       0.00001174      -0.00000024      -0.00000313        0        0       -1       58       26 
Fe      -0.28253213       9.39454658      74.20017235       0.00001247       0.00000217      -0.00000027        0        0       -1       58       26 
Fe       1.13247539      10.99640093      72.99927826       0.00001216      -0.00000009       0.00000013        0        0       -1       58       26 
Fe      -0.28253415      12.19656901      74.60136373       0.00001276      -0.00000043      -0.00000062        0        0       -1       58       26 
Fe       1.13247265      13.79912653      73.40114083       0.00001228       0.00000153      -0.00000138        0        0       -1       58       26 
Fe      -0.28253597      14.99874591      75.00293042       0.00001279       0.00000245      -0.00000133        0        0       -1       58       26 
Fe       1.13247005      16.60142133      73.80252005       0.00001236      -0.00000055       0.00000016        0        0       -1       58       26 
Fe      -0.28253754      17.80050019      75.40391653       0.00001300       0.00000063       0.00000146        0        0       -1       58       26 
Fe       1.13246778      19.40230819      74.20236220       0.00001275       0.00000236      -0.00000066        0        0       -1       58       26 
Fe      -0.28253881       0.59034815      75.80388616       0.00001307       0.00000257      -0.00000119        0        0       -1       58       26 
Fe       1.13246580       2.19125373      74.60154088       0.00001254       0.00000033       0.00000050        0        0       -1       58       26 
Fe      -0.28253982       3.39095609      76.20343398       0.00001306       0.00000024      -0.00000000        0        0       -1       58       26 
Fe       1.13246403       4.99173626      75.00117668       0.00001300       0.00000066      -0.00000269        0        0       -1       58       26 
Fe      -0.28254060       6.19175012      76.60318811       0.00001326       0.00000366       0.00000009        0        0       -1       58       26 
Fe       1.13246253       7.79296823      75.40143342       0.00001281       0.00000145       0.00000113        0        0       -1       58       26 
Fe      -0.28254111       8.99294125      77.00343291       0.00001284      -0.00000105      -0.00000168        0        0       -1       58       26 
Fe       1.13246124      10.59462747      75.80222280       0.00001305       0.00000131      -0.00000298        0        0       -1       58       26 
Fe      -0.28254144      11.79453471      77.40432456       0.00001336       0.00000446      -0.00000002        0        0       -1       58       26 
Fe       1.13246019      13.39646411      76.20347155       0.00001296       0.00000050       0.00000104        0        0       -1       58       26 
Fe      -0.28254147      14.59626760      77.80557044       0.00001280       0.00000026       0.00000053        0        0       -1       58       26 
Fe       1.13245937      16.19826985      76.60473131       0.00001301       0.00000378      -0.00000090        0        0       -1       58       26 
Fe      -0.28254129      17.39781064      78.20649252       0.00001321       0.00000377      -0.00000147        0        0       -1       58       26 
Fe       1.13245882      18.99977466      77.00539759       0.00001314       0.00000013       0.00000031        0        0       -1       58       26 
Fe       1.13245855       1.78982634      77.40547116       0.00001301       0.00000400      -0.00000001        0        0       -1       58       26 
Fe       1.13245853       4.59076898      77.80531049       0.00001319       0.00000140       0.00000111        0        0       -1       58       26 
Fe       1.13245877       7.39161302      78.20516034       0.00001300       0.00000229      -0.00000267        0        0       -1       58       26 
Fe      -0.28254082       0.18808401      78.60687873       0.00001296       0.00000216       0.00000267        0        0       -1       58       26 
Fe       1.13269947      10.27387183      58.68408711       0.00000202      -0.00000096       0.00000378        0        0       -1       56       26 
Fe       1.13270022      13.12930095      58.78458554       0.00000073      -0.00000883      -0.00000027        0        0       -1       60       26 
Fe      -0.28231372      17.28939291      58.42472549       0.00000141       0.00001266      -0.00001287        0        0       -1       52       26 
Fe       1.13245921      10.19273766      78.60540671       0.00001316       0.00000235       0.00000283        0        0       -1       58       26 
Fe       1.13273646      18.92956402      57.29650792      -0.00004546      -0.00000891      -0.00000129        0        0       -1       53       26 
Fe       2.54769752       0.24500507      58.67560632       0.00000045       0.00001709       0.00001484        0        0       -1       56       26 
Fe       1.13273158       1.76239553      57.29987312       0.00000555      -0.00000828       0.00000025        0        0       -1       58       26 
Fe      15.28274250      24.89684028      19.38599275      -0.00000075       0.00001523      -0.00000235       -1       -1        0       60       26 
Fe       1.13272392       4.72734842      57.48011501      -0.00000051      -0.00000821      -0.00000042        0        0       -1       61       26 
Fe       1.13268615       7.33803845      58.47180663       0.00000151      -0.00001378       0.00000401        0        0       -1       52       26 
Fe       1.13278285       7.28614985      56.17631908      -0.00000251      -0.00001231      -0.00000232        0        0       -1       52       26 
Fe       2.54773414       8.92391636      57.30564019       0.00000973      -0.00000806      -0.00000092        0        0       -1       53       26 
Fe       1.13277152      10.25270875      55.92716202       0.00000003      -0.00000262      -0.00000184        0        0       -1       56       26 
Fe       2.54773715      11.76806596      57.30311352      -0.00000217      -0.00000821       0.00000131        0        0       -1       58       26 
Fe       1.13277878      13.07746999      55.79418385      -0.00000262      -0.00000800       0.00000274        0        0       -1       60       26 
Fe       2.54774520      14.73330678      57.12178058      -0.00000098      -0.00000606       0.00000068        0        0       -1       61       26 
Fe       1.13279906      15.69983642      55.21767706       0.00001254      -0.00000849       0.00000444        0        0       -1       56       26 
Fe       2.54778342      17.34616901      56.12929179      -0.00000262      -0.00003246      -0.00001621        0        0       -1       52       26 
Fe       1.13280517      18.66079001      54.69756892      -0.00001400      -0.00000804       0.00000244        0        0       -1       56       26 
Fe       2.54776962       0.27035493      55.91848769      -0.00000241       0.00001209      -0.00001136        0        0       -1       56       26 
Fe       1.13280579       1.51993105      54.43509215       0.00000682      -0.00000676       0.00000193        0        0       -1       58       26 
Fe       2.54776850       3.12558684      55.81847391      -0.00000200      -0.00001165       0.00000098        0        0       -1       60       26 
Fe       1.13281876       4.13825755      53.99653850      -0.00000570      -0.00000612       0.00000506        0        0       -1       56       26 
Fe       2.54779499       5.61038686      55.29613688      -0.00000552      -0.00000818       0.00000582        0        0       -1       56       26 
Fe       1.13283235       6.94066298      53.63651652      -0.00000464      -0.00000888       0.00000505        0        0       -1       57       26 
Fe       2.54780581       8.60923687      54.73402226      -0.00000158      -0.00000528       0.00000345        0        0       -1       56       26 
Fe       1.13283430       9.84742661      53.20782530      -0.00000459      -0.00000445       0.00000418        0        0       -1       58       26 
Fe       2.54780705      11.49198444      54.43845394      -0.00000647      -0.00000814       0.00000436        0        0       -1       58       26 
Fe       1.13283795      12.62003197      52.82526851      -0.00001102      -0.00000712       0.00000216        0        0       -1       58       26 
Fe       2.54781603      14.15438449      54.07359996      -0.00000366       0.00000013       0.00000686        0        0       -1       56       26 
Fe       1.13284737      15.37931643      52.44090982      -0.00000312      -0.00000640       0.00000344        0        0       -1       58       26 
Fe       2.54782870      16.98464924      53.59928214      -0.00000453      -0.00001529       0.00000659        0        0       -1       57       26 
Fe       1.13285555      18.22527468      52.01584794      -0.00001164      -0.00000673       0.00000320        0        0       -1       58       26 
Fe       2.54783295      39.89771665      53.18105721      -0.00000466       0.00000050       0.00000073        0       -1       -1       58       26 
Fe       1.13285992       1.02361761      51.57890393      -0.00000249      -0.00000639       0.00000096        0        0       -1       58       26 
Fe       2.54783799       2.60361637      52.79221656      -0.00000387      -0.00000978       0.00000538        0        0       -1       56       26 
Fe       1.13286768       3.80542395      51.19390924      -0.00000910      -0.00000525       0.00000238        0        0       -1       58       26 
Fe       2.54784881       5.38030396      52.42281407      -0.00000570      -0.00000495       0.00000405        0        0       -1       58       26 
Fe       1.13287553       6.60296633      50.82749609      -0.00000600      -0.00000620       0.00000448        0        0       -1       58       26 
Fe       2.54785667       8.19916284      52.03991822      -0.00000480      -0.00000778       0.00000431        0        0       -1       58       26 
Fe       1.13288137       9.40579404      50.42923489      -0.00000576      -0.00000707       0.00000191        0        0       -1       58       26 
Fe       2.54786095      11.02331260      51.61277521      -0.00000650      -0.00000744       0.00000124        0        0       -1       58       26 
Fe       1.13288660      12.21309044      50.01191393      -0.00000762      -0.00000591       0.00000358        0        0       -1       58       26 
Fe       2.54786704      13.80721493      51.21924537      -0.00000563      -0.00000464      -0.00000064        0        0       -1       58       26 
Fe       1.13289296      15.01184621      49.62067502      -0.00000454      -0.00000522       0.00000073        0        0       -1       58       26 
Fe       2.54787482      16.60514345      50.83219260      -0.00000676      -0.00000878       0.00000193        0        0       -1       58       26 
Fe       1.13289918      17.80713490      49.21924926      -0.00000923      -0.00000607       0.00000210        0        0       -1       58       26 
Fe       2.54788054      19.41558934      50.40459483      -0.00000715      -0.00000258       0.00000162        0        0       -1       58       26 
Fe       1.13290436       0.60352307      48.79947429      -0.00000597      -0.00000525       0.00000306        0        0       -1       58       26 
Fe       2.54788655       2.21336072      49.98516025      -0.00000716      -0.00000859       0.00000248        0        0       -1       58       26 
Fe       1.13291022       3.41605270      48.39559172      -0.00000976      -0.00000409       0.00000135        0        0       -1       58       26 
Fe       2.54789312       5.01436075      49.60597413      -0.00000809      -0.00000446       0.00000169        0        0       -1       58       26 
Fe       1.13291632       6.21519006      48.00966774      -0.00000836      -0.00000661       0.00000185        0        0       -1       58       26 
Fe       2.54789982       7.80820561      49.22388435      -0.00000777      -0.00000445       0.00000430        0        0       -1       58       26 
Fe       1.13292184       9.00897422      47.61787588      -0.00000940      -0.00000436       0.00000374        0        0       -1       58       26 
Fe       2.54790524      10.60682957      48.82002164      -0.00000860      -0.00000871       0.00000320        0        0       -1       58       26 
Fe       1.13292669      11.80987772      47.21569482      -0.00001046      -0.00000578       0.00000085        0        0       -1       58       26 
Fe       2.54791044      13.41350153      48.41367285      -0.00000835      -0.00000300       0.00000209        0        0       -1       58       26 
Fe       1.13293146      14.61258995      46.81213354      -0.00000939      -0.00000596       0.00000264        0        0       -1       58       26 
Fe       2.54791611      16.21075223      48.01611167      -0.00000900      -0.00000643       0.00000340        0        0       -1       58       26 
Fe       1.13293622      17.41092721      46.41113643      -0.00001127      -0.00000367       0.00000141        0        0       -1       58       26 
Fe       2.54792126      19.00933269      47.61050105      -0.00000912      -0.00000459       0.00000174        0        0       -1       58       26 
Fe       1.13294061       0.20312385      46.00718963      -0.00000956      -0.00000451       0.00000079        0        0       -1       58       26 
Fe       2.54792607       1.80838283      47.20098916      -0.00000922      -0.00000503       0.00000138        0        0       -1       58       26 
Fe       1.13294497       3.01132643      45.60250698      -0.00001125      -0.00000566       0.00000200        0        0       -1       58       26 
Fe       2.54793125       4.61630955      46.80130514      -0.00000976      -0.00000393       0.00000288        0        0       -1       58       26 
Fe       1.13294938       5.81524001      45.20311792      -0.00001028      -0.00000239       0.00000073        0        0       -1       58       26 
Fe       2.54793655       7.41394730      46.40918489      -0.00000980      -0.00000613       0.00000010        0        0       -1       58       26 
Fe       1.13295361       8.61364472      44.80779598      -0.00001099      -0.00000600       0.00000132        0        0       -1       58       26 
Fe       2.54794106      10.21068682      46.01364946      -0.00001036      -0.00000425       0.00000218        0        0       -1       58       26 
Fe       1.13295727      11.41196957      44.41015966      -0.00001124      -0.00000469       0.00000232        0        0       -1       58       26 
Fe       2.54794528      13.01134304      45.61209555      -0.00001038      -0.00000561       0.00000251        0        0       -1       58       26 
Fe       1.13296072      14.21240171      44.00878929      -0.00001096      -0.00000313       0.00000045        0        0       -1       58       26 
Fe       2.54794935      15.81246663      45.20934555      -0.00001084      -0.00000472      -0.00000036        0        0       -1       58       26 
Fe       1.13296402      17.01407681      43.60712632      -0.00001191      -0.00000515       0.00000177        0        0       -1       58       26 
Fe       2.54795325      18.61364099      44.80819484      -0.00001094      -0.00000340       0.00000144        0        0       -1       58       26 
Fe       1.13296700      -0.19454025      43.20619239      -0.00001143      -0.00000359       0.00000047        0        0       -1       58       26 
Fe       2.54795689       1.40699158      44.40558668      -0.00001123      -0.00000495       0.00000205        0        0       -1       58       26 
Fe       1.13296989       2.60930316      42.80404862      -0.00001247      -0.00000208      -0.00000010        0        0       -1       58       26 
Fe       2.54796056       4.21241501      44.00269408      -0.00001152      -0.00000340      -0.00000150        0        0       -1       58       26 
Fe       1.13297272       5.41301140      42.40210857      -0.00001214      -0.00000584       0.00000131        0        0       -1       58       26 
Fe       2.54796412       7.01463708      43.60323648      -0.00001164      -0.00000417       0.00000315        0        0       -1       58       26 
Fe       1.13297527       8.21453663      42.00247819      -0.00001259      -0.00000173      -0.00000062        0        0       -1       58       26 
Fe       2.54796731       9.81381633      43.20600531      -0.00001193      -0.00000411      -0.00000004        0        0       -1       58       26 
Fe       1.13297746      11.01432163      41.60401614      -0.00001273      -0.00000430       0.00000125        0        0       -1       58       26 
Fe       2.54797013      12.61306858      42.80708963      -0.00001200      -0.00000369       0.00000091        0        0       -1       58       26 
Fe       1.13297938      13.81449753      41.20460606      -0.00001265      -0.00000392       0.00000117        0        0       -1       58       26 
Fe       2.54797277      15.41406600      42.40624351      -0.00001236      -0.00000460       0.00000243        0        0       -1       58       26 
Fe       1.13298109      16.61599449      40.80420331      -0.00001302      -0.00000252      -0.00000034        0        0       -1       58       26 
Fe       2.54797514      18.21623416      42.00530500      -0.00001241      -0.00000258      -0.00000022        0        0       -1       58       26 
Fe       1.13298250      19.41817783      40.40345646      -0.00001276      -0.00000324       0.00000098        0        0       -1       58       26 
Fe       2.54797727       1.00771272      41.60427319      -0.00001266      -0.00000384      -0.00000024        0        0       -1       58       26 
Fe       1.13298373       2.20944822      40.00231160      -0.00001314      -0.00000318      -0.00000024        0        0       -1       58       26 
Fe       2.54797926       3.81083379      41.20244155      -0.00001267      -0.00000311       0.00000166        0        0       -1       58       26 
Fe       1.13298476       5.01202515      39.60078818      -0.00001296      -0.00000138      -0.00000123        0        0       -1       58       26 