16536
Lattice="16.98 0.0 0.0 0.0 74.44567684 0.0 0.0 0.0 148.81589364" Properties=species:S:1:pos:R:3:force:R:3:map_shift:I:3:n_neighb:I:1:Z:I:1 virial="-286.30895992 0.00443668 -0.00079773 0.00443668 -470.51050159 0.00384501 -0.00079773 0.00384501 -412.83469334" cutoff=5.3 adsorbate_info=T nneightol=1.2 energy=-66206.251695 pbc="T T T"
Fe      14.01173726      58.93374816       6.19468380      -0.00005326       0.00027622      -0.00026044       -1       -1        0       58       26
Fe      -0.14132308       2.29862409     112.06914267      -0.00022135      -0.00117751      -0.00129067        0        0       -1       56       26
Fe      -0.14128268       5.12758247     111.93980627      -0.00029694       0.00243418      -0.00081756        0        0       -1       60       26
Fe       1.27372075       9.43063873     112.25343147      -0.00036457      -0.00052529       0.00247862        0        0       -1       52       26
Fe      15.42670075      57.31890394       7.37977461      -0.00004274      -0.00003465      -0.00054534       -1       -1        0       58       26
Fe      -0.14131764      10.97616892     113.44850008      -0.00007398      -0.00012107      -0.00440777        0        0       -1       53       26
Fe       1.27352641      12.38960309     112.07233799       0.00097247       0.00494393      -0.00094513        0        0       -1       56       26
Fe      -0.14129559      13.74463232     113.55513619      -0.00002097      -0.00196349       0.00071202        0        0       -1       60       26
Fe       1.27378471      15.36183591     112.22913927      -0.00025846       0.00107355       0.00115419        0        0       -1       63       26
Fe      -0.14121817      16.35940360     114.12606122       0.00010428       0.00064469       0.00179049        0        0       -1       56       26
Fe       1.27376801      17.99937632     113.22435829       0.00000902      -0.00056184      -0.00094949        0        0       -1       52       26
Fe      -0.14119492      19.32126467     114.64973206      -0.00003226      -0.00028400      -0.00115601        0        0       -1       56       26
Fe       1.27374919      20.92477497     113.41863582      -0.00000557       0.00067362      -0.00031601        0        0       -1       56       26
Fe      -0.14120659      22.18098009     114.90747515       0.00008065      -0.00100360       0.00070182        0        0       -1       58       26
Fe       1.27372179      23.74802753     113.54309401       0.00012006      -0.00076592       0.00059288        0        0       -1       60       26
Fe      -0.14116718      24.84642801     115.26652258      -0.00001790       0.00057816       0.00001152        0        0       -1       56       26
Fe       1.27382141      26.39696193     114.13214611      -0.00009627       0.00151893       0.00113651        0        0       -1       56       26
Fe      -0.14112941      27.69773198     115.75006520      -0.00001144       0.00074119       0.00021863        0        0       -1       57       26
Fe       1.27380807      29.38535345     114.64577263       0.00005220      -0.00032780       0.00143721        0        0       -1       56       26
Fe      -0.14113911      30.60922035     116.17286246       0.00004047      -0.00010922       0.00112650        0        0       -1       58       26
Fe       1.27379691      32.27170156     114.90325742       0.00003420       0.00015868      -0.00035365        0        0       -1       60       26
Fe      -0.14115298      33.32225575     116.61261212      -0.00005258      -0.00037466       0.00036751        0        0       -1       56       26
Fe       1.27378262      34.89598397     115.48779417       0.00004765      -0.00090727      -0.00055456        0        0       -1       56       26
Fe      -0.14121466      36.15194630     117.11320466       0.00012870       0.00130223      -0.00210540        0        0       -1       57       26
Fe       1.27371462       0.95088593     113.44030611      -0.00033867       0.00109050       0.00070005        0        0       -1       53       26
Fe      -0.14127018       2.28120988     114.82519253      -0.00003052      -0.00042324       0.00103171        0        0       -1       56       26
Fe       1.27367587       3.79905691     113.44952215       0.00031108      -0.00088732      -0.00242182        0        0       -1       58       26
Fe      -0.14125439       5.13745287     114.93727028      -0.00008509      -0.00101959       0.00057288        0        0       -1       60       26
Fe       1.27372687       6.77312047     113.25803541       0.00001277      -0.00203292       0.00392790        0        0       -1       57       26
Fe      -0.14122388       7.59976330     115.48778431      -0.00010369      -0.00008134       0.00483754        0        0       -1       56       26
Fe       1.27374079       9.28153190     114.56231022       0.00004456       0.00191123      -0.00347781        0        0       -1       52       26
Fe      -0.14122700      10.52115964     116.08822821      -0.00010259       0.00075961      -0.00095591        0        0       -1       56       26
Fe       1.27370408      12.18868517     114.92085777       0.00023287      -0.00063936       0.00321505        0        0       -1       56       26
Fe      -0.14122896      13.30449182     116.52199741       0.00023428      -0.00120393      -0.00086186        0        0       -1       58       26
Fe       1.27382267      14.82687479     115.27098526      -0.00041542      -0.00067528      -0.00042006        0        0       -1       56       26
Fe      -0.14116152      16.05248929     116.90038830       0.00009056       0.00068986      -0.00019280        0        0       -1       58       26
Fe       1.27382120      17.65184620     115.74521790       0.00011189       0.00138081       0.00110170        0        0       -1       57       26
Fe      -0.14109412      18.89937766     117.32454043      -0.00010960       0.00009061       0.00127820        0        0       -1       58       26
Fe       1.27386500      20.55623179     116.16221068      -0.00005402      -0.00172188      -0.00018646        0        0       -1       58       26
Fe      -0.14107525      21.72605487     117.74907809       0.00005737      -0.00056807      -0.00097244        0        0       -1       58       26
Fe       1.27386589      23.31647830     116.52223402       0.00008015       0.00029753      -0.00003265        0        0       -1       58       26
Fe      -0.14104330      24.50406078     118.13100295       0.00002356       0.00054729      -0.00012697        0        0       -1       58       26
Fe       1.27391577      26.08074411     116.90528345      -0.00004830       0.00104802      -0.00027591        0        0       -1       58       26
Fe      -0.14103035      27.30108595     118.52481637       0.00011619       0.00061623       0.00034651        0        0       -1       58       26
Fe       1.27391796      28.93399163     117.34198762       0.00007028      -0.00075797       0.00186319        0        0       -1       58       26
Fe      -0.14099578      30.10613840     118.97338787      -0.00000068       0.00012952       0.00065829        0        0       -1       58       26
Fe       1.27392331      31.73362204     117.80431391       0.00001216       0.00102839      -0.00035004        0        0       -1       58       26
Fe      -0.14101308      32.90630025     119.42958665      -0.00002149      -0.00001043      -0.00019446        0        0       -1       58       26
Fe       1.27386329      34.51848504     118.25008149       0.00013500      -0.00086675       0.00020405        0        0       -1       58       26
Fe      16.83890037      35.71533572     119.87063588       0.00022441       0.00047735      -0.00074343       -1        0       -1       58       26
Fe       1.27374118       0.63090419     116.03056387       0.00017206      -0.00081886      -0.00007774        0        0       -1       56       26
Fe      -0.14121494       1.82371752     117.56356244       0.00004923       0.00116658      -0.00153268        0        0       -1       58       26
Fe       1.27376361       3.49582124     116.32506769      -0.00000492       0.00243674      -0.00323101        0        0       -1       56       26
Fe      -0.14121347       4.54207429     117.98393411       0.00014761      -0.00124787       0.00016187        0        0       -1       56       26
Fe       1.27378403       6.09401585     116.78207619      -0.00003456      -0.00150970      -0.00090160        0        0       -1       56       26
Fe      -0.14120258       7.28371483     118.38990130       0.00011074       0.00011380      -0.00121699        0        0       -1       56       26
Fe       1.27377140       8.85136222     117.18288638       0.00012037      -0.00007283       0.00029655        0        0       -1       57       26
Fe      -0.14119713      10.05476845     118.82824509       0.00027587      -0.00266566      -0.00117733        0        0       -1       58       26
Fe       1.27381994      11.68784782     117.69272172      -0.00012658      -0.00269787      -0.00336257        0        0       -1       58       26
Fe      -0.14112797      12.87239673     119.29780840       0.00006373      -0.00121114      -0.00179693        0        0       -1       58       26
Fe       1.27384766      14.48252256     118.11890247       0.00003822       0.00336265       0.00282061        0        0       -1       58       26
Fe      -0.14107158      15.68178958     119.71090719       0.00007262      -0.00234466      -0.00180171        0        0       -1       58       26
Fe       1.27390471      17.27952802     118.50518105       0.00007918      -0.00123971      -0.00121483        0        0       -1       58       26
Fe      -0.14101142      18.48133875     120.11285565       0.00014276       0.00031633       0.00187340        0        0       -1       58       26
Fe       1.27397306      20.09809349     118.92764180       0.00001441       0.00039899       0.00175524        0        0       -1       58       26
Fe      -0.14091979      21.28904147     120.53515108       0.00002213       0.00086121      -0.00005202        0        0       -1       58       26
Fe       1.27401932      22.90740359     119.34693474       0.00001869      -0.00013926      -0.00036489        0        0       -1       58       26
Fe      -0.14087544      24.09419557     120.94873305       0.00004765       0.00010693      -0.00068103        0        0       -1       58       26
Fe       1.27403346      25.69927338     119.73779758       0.00011572       0.00128072      -0.00002428        0        0       -1       58       26
Fe      -0.14085970      26.88183772     121.35520596       0.00016420       0.00019926       0.00212799        0        0       -1       58       26
Fe       1.27406883      28.48727569     120.15402433       0.00007894       0.00027377       0.00106175        0        0       -1       58       26
Fe      -0.14080043      29.66910108     121.78292824       0.00001881       0.00043554       0.00131520        0        0       -1       58       26
Fe       1.27410683      31.28488716     120.60229986      -0.00006500       0.00063604       0.00071951        0        0       -1       58       26
Fe      -0.14079523      32.46824968     122.22584141      -0.00003670       0.00139204       0.00095128        0        0       -1       58       26
Fe       1.27404457      34.09063218     121.04835103       0.00010433      -0.00015648      -0.00080951        0        0       -1       58       26
Fe      -0.14086945      35.26688862     122.67294676       0.00016056       0.00043309       0.00050475        0        0       -1       58       26
Fe       1.27399109      36.88902129     121.49883247       0.00015747      -0.00076720      -0.00063615        0        0       -1       58       26
Fe       1.27381412       0.13889034     118.70991671       0.00023857      -0.00057903      -0.00148222        0        0       -1       58       26
Fe      -0.14109756       1.29798564     120.33639925       0.00005971       0.00071759      -0.00083311        0        0       -1       58       26
Fe       1.27384334       2.93896711     119.18035038       0.00000729       0.00192729       0.00007174        0        0       -1       58       26
Fe      -0.14109878       4.09045093     120.79613845       0.00010892       0.00229643       0.00128973        0        0       -1       58       26
Fe       1.27382802       5.69889475     119.60654193       0.00020419      -0.00211434      -0.00138937        0        0       -1       58       26
Fe      -0.14107751       6.86934020     121.22022601       0.00004983      -0.00168922      -0.00122492        0        0       -1       58       26
Fe       1.27386293       8.46210076     120.01830573       0.00005474      -0.00190267      -0.00087099        0        0       -1       58       26
Fe      -0.14104512       9.64790083     121.63936189       0.00010562      -0.00032734      -0.00156593        0        0       -1       58       26
Fe       1.27388564      11.25055303     120.45579581       0.00022570      -0.00033101      -0.00161028        0        0       -1       58       26
Fe      -0.14097508      12.44849625     122.06984440       0.00014347      -0.00184360      -0.00133401        0        0       -1       58       26
Fe       1.27396604      14.06813793     120.89725762       0.00015370      -0.00279752      -0.00193172        0        0       -1       58       26
Fe      -0.14088618      15.26008220     122.49978378       0.00005525      -0.00017437       0.00032311        0        0       -1       58       26
Fe       1.27402849      16.87444790     121.31097764       0.00016417       0.00037449       0.00137801        0        0       -1       58       26
Fe      -0.14083582      18.06292896     122.91700834       0.00024688      -0.00026919      -0.00015194        0        0       -1       58       26
Fe       1.27411149      19.67357188     121.72295164       0.00017600       0.00094905       0.00029208        0        0       -1       58       26
Fe      -0.14070227      20.86242954     123.33317761      -0.00000338       0.00125974       0.00017678        0        0       -1       58       26
Fe       1.27422586      22.47811527     122.14286726      -0.00006269       0.00065552      -0.00113702        0        0       -1       58       26
Fe      -0.14063197      23.66192257     123.75438170       0.00006908       0.00081445      -0.00041797        0        0       -1       58       26
Fe       1.27424608      25.27525155     122.55931836       0.00014013       0.00049474      -0.00109492        0        0       -1       58       26
Fe      -0.14058136      26.45388956     124.17542996       0.00006307       0.00017491      -0.00094487        0        0       -1       58       26
Fe       1.27429385      28.06128409     122.97696191       0.00009203       0.00056585       0.00190124        0        0       -1       58       26
Fe      -0.14053698      29.24129427     124.59908328       0.00003751       0.00154700      -0.00017473        0        0       -1       58       26
Fe       1.27433744      30.85164647     123.40832653      -0.00003067       0.00229821       0.00039964        0        0       -1       58       26
Fe      -0.14053321      32.03261220     125.03291291       0.00006120       0.00063086       0.00032706        0        0       -1       58       26
Fe       1.27431272      33.64782150     123.85070138      -0.00000676       0.00040041       0.00067784        0        0       -1       58       26
Fe      -0.14055545      34.82674312     125.47598996       0.00006642      -0.00127338       0.00046533        0        0       -1       58       26
Fe       1.27425387      36.44291949     124.29891020       0.00017427       0.00045428       0.00077909        0        0       -1       58       26
Fe      -0.14089738       0.83907031     123.12643858       0.00015711       0.00060140      -0.00019928        0        0       -1       58       26
Fe       1.27398615       2.46358807     121.96109773       0.00015901      -0.00032931      -0.00018107        0        0       -1       58       26
Fe      -0.14088605       3.63844142     123.57951888       0.00014976       0.00095593       0.00052918        0        0       -1       58       26
Fe       1.27400172       5.25975292     122.40787045       0.00013324       0.00129251       0.00154455        0        0       -1       58       26
Fe      -0.14086992       6.43678864     124.01875139       0.00026865       0.00071841       0.00006513        0        0       -1       58       26
Fe       1.27402419       8.04725319     122.83305432       0.00024289       0.00026155      -0.00110639        0        0       -1       58       26
Fe      -0.14079459       9.23185972     124.44322930       0.00015622      -0.00012748      -0.00003996        0        0       -1       58       26
Fe       1.27409382      10.83865103     123.25313437       0.00024584       0.00055724       0.00100352        0        0       -1       58       26
Fe      -0.14069105      12.02873873     124.86449465       0.00005755       0.00133191       0.00257752        0        0       -1       58       26
Fe       1.27421582      13.64201647     123.68015584      -0.00003329      -0.00047402      -0.00015973        0        0       -1       58       26
Fe      -0.14059900      14.83111589     125.29055413       0.00003958       0.00185994       0.00056156        0        0       -1       58       26
Fe       1.27426987      16.44825641     124.10628827       0.00017732      -0.00010758      -0.00033052        0        0       -1       58       26
Fe      -0.14051653      17.63451558     125.71497688       0.00008009       0.00033432       0.00087281        0        0       -1       58       26
Fe       1.27436909      19.24958241     124.52570109       0.00012017      -0.00046185      -0.00016189        0        0       -1       58       26
Fe      -0.14041273      20.43365008     126.13700013       0.00004829       0.00093484       0.00087366        0        0       -1       58       26
Fe       1.27448234      22.04724930     124.94533575       0.00000865       0.00088079       0.00290122        0        0       -1       58       26
Fe      -0.14032200      23.22894864     126.56037387       0.00005076       0.00029899       0.00012692        0        0       -1       58       26
Fe       1.27455013      24.84241344     125.36964566       0.00006968       0.00021273      -0.00158923        0        0       -1       58       26
Fe      -0.14023272      26.02199922     126.98676691      -0.00004191      -0.00004573      -0.00207038        0        0       -1       58       26
Fe       1.27461395      27.63257751     125.79374404      -0.00000638       0.00097329      -0.00128198        0        0       -1       58       26
Fe      -0.14019599      28.81185333     127.41283648       0.00000511       0.00176952      -0.00022961        0        0       -1       58       26
Fe       1.27462316      30.42130232     126.22099575       0.00009793       0.00211164       0.00054957        0        0       -1       58       26
Fe      -0.14019460      31.60160254     127.84292382       0.00007923       0.00195312       0.00133209        0        0       -1       58       26
Fe       1.27462373      33.21282891     126.65724328       0.00008351       0.00099731      -0.00051089        0        0       -1       58       26
Fe      -0.14018267      34.39447261     128.28008238       0.00005139       0.00007377       0.00024275        0        0       -1       58       26
Fe       1.27462021      36.00757382     127.09962410       0.00008420       0.00025801      -0.00073389        0        0       -1       58       26
Fe      -0.14057997       0.39988273     125.92246209       0.00017899      -0.00002086      -0.00030255        0        0       -1       58       26
Fe       1.27425751       2.01754582     124.74911732       0.00014898      -0.00034260       0.00011769        0        0       -1       58       26
Fe      -0.14053947       3.19977114     126.36789884       0.00007115      -0.00047479      -0.00100825        0        0       -1       58       26
Fe       1.27428435       4.81855820     125.19442368       0.00018782       0.00094710       0.00139090        0        0       -1       58       26
Fe      -0.14047827       6.00231658     126.80711483      -0.00000201       0.00018684       0.00110589        0        0       -1       58       26
Fe       1.27434398       7.61939032     125.62815374       0.00012930       0.00013571       0.00218192        0        0       -1       58       26
Fe      -0.14041864       8.80376276     127.23778987       0.00005946       0.00088277       0.00276952        0        0       -1       58       26
Fe       1.27443133      10.41809671     126.05302540       0.00006536      -0.00190611      -0.00052540        0        0       -1       58       26
Fe      -0.14034040      11.60312327     127.66362095       0.00006783       0.00114758      -0.00089790        0        0       -1       58       26
Fe       1.27452424      13.21643518     126.47620986       0.00004849       0.00198922       0.00055379        0        0       -1       58       26
Fe      -0.14024634      14.40302159     128.08793635       0.00001904      -0.00021058      -0.00108549        0        0       -1       58       26
Fe       1.27461399      16.01824021     126.90139279       0.00006233      -0.00031829      -0.00037601        0        0       -1       58       26
Fe      -0.14014991      17.20310767     128.51326733      -0.00000131      -0.00033207       0.00057540        0        0       -1       58       26
Fe       1.27471838      18.81869789     127.32611875      -0.00003194       0.00163588       0.00126711        0        0       -1       58       26
Fe      -0.14006429      20.00123833     128.93958753       0.00001025      -0.00090670      -0.00121818        0        0       -1       58       26
Fe       1.27480111      21.61564903     127.75094059       0.00004400      -0.00012407      -0.00127441        0        0       -1       58       26
Fe      16.84002190      22.79647436     129.36640172       0.00001083       0.00049922      -0.00080429       -1        0       -1       58       26
Fe       1.27490388      24.40934650     128.17683847      -0.00005066       0.00142929      -0.00005953        0        0       -1       58       26
Fe      -0.13987713      25.58985479     129.79397374      -0.00010352       0.00112470       0.00082882        0        0       -1       58       26
Fe       1.27498120      27.20184200     128.60461883      -0.00009680      -0.00042871      -0.00134925        0        0       -1       58       26
Fe      -0.13981684      28.38225116     130.22278875      -0.00008998      -0.00048176      -0.00124714        0        0       -1       58       26
Fe       1.27499873      29.99208695     129.03222687       0.00002248       0.00028461       0.00220193        0        0       -1       58       26
Fe      -0.13978740      31.17330395     130.65178388      -0.00003825       0.00147402       0.00101664        0        0       -1       58       26
Fe       1.27501495      32.78317663     129.46424249       0.00001897       0.00086669       0.00127531        0        0       -1       58       26
Fe      -0.13976943      33.96628468     131.08435287       0.00004205       0.00039216       0.00161682        0        0       -1       58       26
Fe       1.27503593      35.57796301     129.90105377       0.00004083      -0.00068749       0.00061423        0        0       -1       58       26
Fe      -0.13972589      36.76242203     131.52059365       0.00000865      -0.00012265       0.00000045        0        0       -1       58       26
Fe      -0.14016206      -0.03175984     128.72073623       0.00004092      -0.00086560      -0.00053459        0        0       -1       58       26
Fe       1.27463492       1.58282303     127.54291148       0.00011074       0.00053980      -0.00077510        0        0       -1       58       26
Fe      -0.14012535       2.76785621     129.16075192       0.00007657      -0.00025128      -0.00009098        0        0       -1       58       26
Fe       1.27469776       4.38443784     127.98362513       0.00000830      -0.00014289       0.00004754        0        0       -1       58       26
Fe      -0.14006373       5.56973226     129.59804892       0.00004453       0.00016701       0.00051545        0        0       -1       58       26
Fe       1.27475961       7.18715545     128.41915011      -0.00000492       0.00032103       0.00059360        0        0       -1       58       26
Fe      -0.14000376       8.37195480     130.03143271       0.00001251       0.00041193       0.00004663        0        0       -1       58       26
Fe       1.27481734       9.98805138     128.84871556       0.00004558       0.00294199       0.00111151        0        0       -1       58       26
Fe      -0.13994643      11.17296525     130.46021585       0.00004496       0.00181734       0.00018821        0        0       -1       58       26
Fe       1.27489626      12.78799554     129.27442657       0.00003282       0.00332448       0.00124514        0        0       -1       58       26
Fe      -0.13986701      13.97252655     130.88626836       0.00003212       0.00283137       0.00302190        0        0       -1       58       26
Fe       1.27498885      15.58792636     129.70023294       0.00000587      -0.00014425      -0.00015402        0        0       -1       58       26
Fe      -0.13977933      16.77112854     131.31379091       0.00000184       0.00062123       0.00013857        0        0       -1       58       26
Fe       1.27507511      18.38594567     130.12657677       0.00001011       0.00078051       0.00216343        0        0       -1       58       26
Fe      -0.13970113      19.56779102     131.74128027      -0.00000352       0.00133060       0.00224486        0        0       -1       58       26
Fe       1.27515087      21.18240174     130.55429037       0.00003932       0.00057683       0.00079384        0        0       -1       58       26
Fe      -0.13963548      22.36338955     132.16987248       0.00004483       0.00287521       0.00187324        0        0       -1       58       26
Fe       1.27523607      23.97717020     130.98264494       0.00001474       0.00127859      -0.00011290        0        0       -1       58       26
Fe      -0.13955976      25.15848967     132.59928733       0.00004258       0.00051296      -0.00145120        0        0       -1       58       26
Fe       1.27532176      26.77081427     131.41173663      -0.00003639       0.00080591      -0.00272112        0        0       -1       58       26
Fe      -0.13947779      27.95293667     133.02894166       0.00001214      -0.00175249      -0.00152430        0        0       -1       58       26
Fe       1.27538835      29.56375098     131.84078302      -0.00007639      -0.00060210      -0.00050935        0        0       -1       58       26
Fe      -0.13940287      30.74615012     133.45865010      -0.00003670      -0.00040224       0.00021302        0        0       -1       58       26
Fe       1.27543221      32.35603590     132.27076279      -0.00006525       0.00045885       0.00088266        0        0       -1       58       26
Fe      16.84065420      33.53961855     133.88922108      -0.00005231      -0.00027164       0.00132447       -1        0       -1       58       26
Fe       1.27546172      35.15026417     132.70358017       0.00004650       0.00075801       0.00108380        0        0       -1       58       26
Fe      -0.13929084      36.33475467     134.32205259      -0.00002080       0.00083426       0.00072968        0        0       -1       58       26
Fe       1.27507763       1.15316085     130.33984940       0.00001759      -0.00121022      -0.00056890        0        0       -1       58       26
Fe      -0.13967078       2.33835828     131.95767930      -0.00001004       0.00019043      -0.00144264        0        0       -1       58       26
Fe       1.27512597       3.95328766     130.77718682       0.00003039       0.00008988       0.00018513        0        0       -1       58       26
Fe      -0.13962019       5.13873316     132.39278632       0.00001394       0.00139681      -0.00034844        0        0       -1       58       26
Fe       1.27518353       6.75494849     131.21201486       0.00001378       0.00077037       0.00069503        0        0       -1       58       26
Fe      -0.13956925       7.94034679     132.82564387      -0.00000289       0.00113814       0.00073872        0        0       -1       58       26
Fe       1.27522931       9.55700079     131.64376186       0.00005922       0.00005464       0.00013320        0        0       -1       58       26
Fe      -0.13953226      10.74171343     133.25650466       0.00007665       0.00034355       0.00074131        0        0       -1       58       26
Fe       1.27529170      12.35769636     132.07246861       0.00003232      -0.00022011      -0.00032626        0        0       -1       58       26
Fe      -0.13947098      13.54122861     133.68583636       0.00005397      -0.00010617      -0.00009545        0        0       -1       58       26
Fe       1.27536813      15.15606999     132.49991391       0.00002676       0.00142451       0.00118109        0        0       -1       58       26
Fe      -0.13939752      16.33874641     134.11474819       0.00001663       0.00092309      -0.00179566        0        0       -1       58       26
Fe       1.27544877      17.95340859     132.92838949      -0.00000918       0.00070604      -0.00034795        0        0       -1       58       26