8088
Lattice="16.98 0.0 0.0 0.0 52.18262163 0.0 0.0 0.0 104.00488965" Properties=species:S:1:pos:R:3:force:R:3:map_shift:I:3:n_neighb:I:1:Z:I:1 nneightol=1.2 virial="-144.08374187 -0.00011298 8e-08 -0.00011298 -270.09125985 -0.00014201 8e-08 -0.00014201 -80.32705333" energy=-32336.4247454 cutoff=5.3 pbc="T T T"
Fe      13.86240019      44.19683205       9.74353965       0.00012552      -0.00002366      -0.00001141       -1       -1        0       58       26
Fe      -0.28323957       2.84499936      78.62102953       0.00001359      -0.00049225      -0.00012453        0        0       -1       53       26
Fe      -0.28308614       5.79206529      78.44338807      -0.00000297       0.00004268       0.00000298        0        0       -1       57       26
Fe      15.27758389      42.50406786      10.81520518       0.00012103       0.00001186      -0.00003148       -1       -1        0       58       26
Fe      -0.28430184       8.25004612      79.75354295       0.00003912       0.00000827      -0.00006614        0        0       -1       53       26
Fe       1.13171983      10.05409806      78.64685974       0.00000765      -0.00004394      -0.00000071        0        0       -1       55       26
Fe      -0.28415194      10.98817220      80.36540856       0.00003533      -0.00008162       0.00005553        0        0       -1       54       26
Fe       1.13106351      12.56527368      79.22818814       0.00002817       0.00008629      -0.00004955        0        0       -1       56       26
Fe      -0.28448697      13.76116674      80.91576024       0.00003997       0.00002763      -0.00005488        0        0       -1       57       26
Fe       1.13085712      15.49776981      79.87972775       0.00003053      -0.00010158       0.00000409        0        0       -1       56       26
Fe      -0.28462483      16.57657224      81.52070659       0.00004041      -0.00005618       0.00003304        0        0       -1       58       26
Fe       1.13075842      18.22374870      80.38521223       0.00003301       0.00002061      -0.00000281        0        0       -1       57       26
Fe      -0.28482326      19.34304150      82.06234842       0.00004894       0.00003955      -0.00000814        0        0       -1       58       26
Fe       1.13044241      21.03575635      80.96544732       0.00004416      -0.00004175       0.00001955        0        0       -1       57       26
Fe      -0.28503535      22.11153493      82.66521916       0.00006132      -0.00013497       0.00002742        0        0       -1       58       26
Fe       1.13028170      23.80945010      81.59811806       0.00004890       0.00007903      -0.00011790        0        0       -1       56       26
Fe      -0.28522993      24.87592718      83.30279421       0.00006065       0.00011895      -0.00000704        0        0       -1       58       26
Fe       1.13072681       1.12951399      79.73051924       0.00003721       0.00012465      -0.00055821        0        0       -1       52       26
Fe      -0.28467142       2.28811449      81.25604256       0.00004779       0.00022911       0.00025773        0        0       -1       54       26
Fe       1.13105590       4.07429289      80.09130859       0.00002436       0.00017597       0.00034305        0        0       -1       56       26
Fe      -0.28471609       4.93071111      81.90607336       0.00004271      -0.00013502      -0.00024107        0        0       -1       56       26
Fe       1.13054920       6.51229562      80.66102653       0.00003939      -0.00014825      -0.00001208        0        0       -1       56       26
Fe      -0.28497487       7.61724845      82.42342592       0.00005059      -0.00000330       0.00007729        0        0       -1       57       26
Fe       1.13036143       9.31863951      81.41385770       0.00004667       0.00005099       0.00001157        0        0       -1       55       26
Fe      -0.28510393      10.41268701      83.08502778       0.00005538      -0.00000355      -0.00005355        0        0       -1       58       26
Fe       1.13024253      12.09989747      82.01440181       0.00004627      -0.00007725       0.00003776        0        0       -1       58       26
Fe      -0.28525732      13.19645967      83.68011749       0.00005776      -0.00005979       0.00002940        0        0       -1       58       26
Fe       1.13003778      14.87705232      82.58830022       0.00005008       0.00002745      -0.00003643        0        0       -1       58       26
Fe      -0.28543148      15.97243882      84.26435825       0.00006260       0.00005471      -0.00002096        0        0       -1       58       26
Fe       1.12987372      17.66726510      83.17996209       0.00005726      -0.00005355       0.00004880        0        0       -1       58       26
Fe      -0.28560534      18.74343172      84.85752574       0.00007235      -0.00012279       0.00000583        0        0       -1       58       26
Fe       1.12967939      20.42435576      83.75520994       0.00006355       0.00003849      -0.00008499        0        0       -1       58       26
Fe      -0.28578852      21.49365598      85.45428956       0.00007686       0.00010918      -0.00000235        0        0       -1       58       26
Fe       1.12948788      23.17974290      84.37128763       0.00007321      -0.00008324       0.00011863        0        0       -1       58       26
Fe      -0.28596032      24.24299012      86.07881425       0.00008181      -0.00014086      -0.00003987        0        0       -1       58       26
Fe       1.12931457      25.93283378      85.01439844       0.00007564      -0.00001357      -0.00013788        0        0       -1       58       26
Fe       1.13003860       0.49266669      82.24986894       0.00005231      -0.00003641       0.00017835        0        0       -1       57       26
Fe      -0.28540459       1.53950572      83.96570822       0.00006466      -0.00015954      -0.00012196        0        0       -1       58       26
Fe       1.12991225       3.25635198      82.94824669       0.00005473      -0.00014806      -0.00030204        0        0       -1       56       26
Fe      -0.28554710       4.30667324      84.63395900       0.00006472       0.00012630       0.00020466        0        0       -1       58       26
Fe       1.12976346       5.99407784      83.55698789       0.00005775       0.00009640       0.00017537        0        0       -1       56       26
Fe      -0.28570571       7.06040414      85.23441629       0.00006667      -0.00011595      -0.00014093        0        0       -1       58       26
Fe       1.12957687       8.72043336      84.13227249       0.00006044      -0.00008659      -0.00004578        0        0       -1       58       26
Fe      -0.28586127       9.81553609      85.82257236       0.00007426      -0.00000036       0.00006303        0        0       -1       58       26
Fe       1.12943403      11.50689418      84.75634776       0.00006583       0.00002905      -0.00000713        0        0       -1       58       26
Fe      -0.28601312      12.59401722      86.43255711       0.00007867       0.00001850      -0.00004134        0        0       -1       58       26
Fe       1.12927634      14.28498772      85.35254479       0.00006831      -0.00005619       0.00004863        0        0       -1       58       26
Fe      -0.28616821      15.36439718      87.03228885       0.00008430      -0.00010094       0.00001994        0        0       -1       58       26
Fe       1.12910679      17.05324828      85.94577783       0.00007579       0.00002143      -0.00008657        0        0       -1       58       26
Fe      -0.28632977      18.12486145      87.63330331       0.00008995       0.00009910       0.00000780        0        0       -1       58       26
Fe       1.12893687      19.81157446      86.54650008       0.00008170      -0.00005467       0.00012085        0        0       -1       58       26
Fe      -0.28648503      20.87734784      88.24093625       0.00009279      -0.00014706      -0.00004947        0        0       -1       58       26
Fe       1.12877290      22.55904986      87.15605959       0.00008514       0.00000830      -0.00013063        0        0       -1       58       26
Fe      -0.28663015      23.62693698      88.85645513       0.00009594       0.00011467       0.00006419        0        0       -1       58       26
Fe       1.12862158      25.31041900      87.78302414       0.00009009      -0.00001415       0.00013565        0        0       -1       58       26
Fe      -0.28611826       0.90695698      86.72011470       0.00008560       0.00010436       0.00007253        0        0       -1       58       26
Fe       1.12915395       2.60142754      85.67010319       0.00007545       0.00002706       0.00018213        0        0       -1       58       26
Fe      -0.28626446       3.67588677      87.36239070       0.00008528      -0.00015425      -0.00013330        0        0       -1       58       26
Fe       1.12900865       5.37533034      86.31080089       0.00007607      -0.00011567      -0.00018395        0        0       -1       58       26
Fe      -0.28640253       6.45093896      87.98818357       0.00009009       0.00009546       0.00013795        0        0       -1       58       26
Fe       1.12886378       8.13886029      86.91148623       0.00008370       0.00005738       0.00010916        0        0       -1       58       26
Fe      -0.28654166       9.21820428      88.59061148       0.00009316      -0.00005795      -0.00010220        0        0       -1       58       26
Fe       1.12871739      10.90282964      87.50708462       0.00008487      -0.00007949      -0.00002369        0        0       -1       58       26
Fe      -0.28668263      11.98317234      89.19155889       0.00009495      -0.00004920       0.00005397        0        0       -1       58       26
Fe       1.12856625      13.67383367      88.11363106       0.00008888       0.00003496      -0.00003946        0        0       -1       58       26
Fe      -0.28682628      14.74806038      89.79896627       0.00010230       0.00005547      -0.00003035        0        0       -1       58       26
Fe       1.12841530      16.43720180      88.71780424       0.00009695      -0.00006135       0.00008581        0        0       -1       58       26
Fe      -0.28696373      17.50692023      90.40701382       0.00011153      -0.00012148      -0.00001155        0        0       -1       58       26
Fe       1.12826929      19.19296886      89.32472346       0.00009718       0.00000148      -0.00013535        0        0       -1       58       26
Fe      -0.28709396      20.26157035      91.01742012       0.00011034       0.00011460       0.00005836        0        0       -1       58       26
Fe       1.12813157      21.94501362      89.93646513       0.00010110      -0.00000414       0.00015491        0        0       -1       58       26
Fe      -0.28721648      23.01625496      91.63068043       0.00011346      -0.00017070      -0.00009917        0        0       -1       58       26
Fe       1.12799958      24.69942269      90.55339623       0.00010698      -0.00003547      -0.00016419        0        0       -1       58       26
Fe      -0.28733304      25.77498173      92.24707821       0.00011860       0.00014524       0.00011163        0        0       -1       58       26
Fe      -0.28676837       0.29291583      89.48146528       0.00010419      -0.00014994      -0.00008811        0        0       -1       58       26
Fe       1.12847511       1.98159471      88.41757751       0.00009547      -0.00005127      -0.00016250        0        0       -1       58       26
Fe      -0.28689904       3.06011083      90.10944857       0.00010504       0.00011593       0.00011831        0        0       -1       58       26
Fe       1.12834461       4.75436287      89.04892518       0.00009437       0.00004309       0.00015843        0        0       -1       58       26
Fe      -0.28701749       5.83317968      90.73369434       0.00010458      -0.00011617      -0.00012310        0        0       -1       58       26
Fe       1.12821532       7.52826546      89.66725321       0.00010098      -0.00009116      -0.00012797        0        0       -1       58       26
Fe      -0.28714026       8.60442432      91.34888791       0.00011145       0.00003583       0.00010471        0        0       -1       58       26
Fe       1.12807984      10.29522398      90.27243789       0.00010400       0.00005273       0.00004273        0        0       -1       58       26
Fe      -0.28726475      11.36954530      91.95701153       0.00011735      -0.00000939      -0.00006887        0        0       -1       58       26
Fe       1.12794734      13.05843109      90.87777648       0.00010786      -0.00008101       0.00001572        0        0       -1       58       26
Fe      -0.28738186      14.13086997      92.56570972       0.00011653      -0.00006999       0.00002940        0        0       -1       58       26
Fe       1.12781903      15.81933896      91.48720739       0.00011432       0.00002293      -0.00007301        0        0       -1       58       26
Fe      -0.28749546      16.89001250      93.17684368       0.00012042       0.00006618       0.00000779        0        0       -1       58       26
Fe       1.12769616      18.57653023      92.09775859       0.00012146      -0.00003380       0.00012073        0        0       -1       58       26
Fe      -0.28760170      19.64759768      93.78860344       0.00012747      -0.00014692      -0.00005714        0        0       -1       58       26
Fe       1.12758246      21.33250197      92.70966106       0.00012209      -0.00003541      -0.00017991        0        0       -1       58       26
Fe      -0.28769767      22.40556498      94.40086347       0.00012611       0.00015259       0.00009635        0        0       -1       58       26
Fe       1.12747690      24.09023551      93.32307275       0.00012089       0.00002858       0.00020333        0        0       -1       58       26
Fe      -0.28778632      25.16565863      95.01409176       0.00012528      -0.00019209      -0.00014255        0        0       -1       58       26
Fe       1.12787617       1.37018998      91.17534135       0.00010976       0.00002877       0.00017610        0        0       -1       58       26
Fe      -0.28743875       2.44839862      92.86650367       0.00011754      -0.00016124      -0.00013720        0        0       -1       58       26
Fe       1.12776341       4.13918618      91.79853132       0.00011216      -0.00007882      -0.00016877        0        0       -1       58       26
Fe      -0.28753940       5.21709657      93.48664157       0.00012133       0.00011243       0.00013357        0        0       -1       58       26
Fe       1.12765200       6.91051607      92.41869906       0.00011584       0.00005926       0.00012874        0        0       -1       58       26
Fe      -0.28764023       7.98607139      94.10476963       0.00012402      -0.00009233      -0.00010415        0        0       -1       58       26
Fe       1.12753902       9.67882308      93.03310234       0.00012074      -0.00007572      -0.00006987        0        0       -1       58       26
Fe      -0.28773893      10.75190534      94.71933637       0.00012816       0.00001470       0.00007440        0        0       -1       58       26
Fe       1.12743155      12.44210468      93.64368507       0.00012465       0.00003779       0.00000883        0        0       -1       58       26
Fe      -0.28782953      13.51406101      95.33168805       0.00013037       0.00001400      -0.00003145        0        0       -1       58       26
Fe       1.12732980      15.20242304      94.25468205       0.00012524      -0.00005789       0.00005357        0        0       -1       58       26
Fe      -0.28791446      16.27432126      95.94400741       0.00013355      -0.00009134       0.00000335        0        0       -1       58       26
Fe       1.12723314      17.96147577      94.86678156       0.00012995       0.00001450      -0.00011097        0        0       -1       58       26
Fe      -0.28799286      19.03407184      96.55650143       0.00013475       0.00012487       0.00003481        0        0       -1       58       26
Fe       1.12714493      20.72026582      95.47891682       0.00013444      -0.00000541       0.00016587        0        0       -1       58       26
Fe      16.69193661      21.79408858      97.16873433       0.00013741      -0.00017850      -0.00008733       -1        0       -1       58       26
Fe       1.12706616      23.47999279      96.09120996       0.00013237      -0.00004854      -0.00022201        0        0       -1       58       26
Fe      -0.28812637      24.55486145      97.78103287       0.00013548       0.00017879       0.00012254        0        0       -1       58       26
Fe       1.12737741       0.76047748      93.93861799       0.00012304      -0.00007489      -0.00020795        0        0       -1       58       26
Fe      -0.28787022       1.83716996      95.62899164       0.00013043       0.00016467       0.00014937        0        0       -1       58       26
Fe       1.12728654       3.52597797      94.55635364       0.00012777       0.00005965       0.00020017        0        0       -1       58       26
Fe      -0.28794786       4.60242614      96.24579936       0.00013360      -0.00017145      -0.00013988        0        0       -1       58       26
Fe       1.12719728       6.29345696      95.17478317       0.00012889      -0.00007293      -0.00016233        0        0       -1       58       26
Fe      -0.28802372       7.36845426      96.86324882       0.00013542       0.00009928       0.00011514        0        0       -1       58       26
Fe       1.12710988       9.06021294      95.79195054       0.00013356       0.00003528       0.00010261        0        0       -1       58       26
Fe      -0.28809610      10.13365942      97.47995798       0.00014179      -0.00006719      -0.00008282        0        0       -1       58       26
Fe       1.12702719      11.82445300      96.40690114       0.00013832      -0.00006781      -0.00002639        0        0       -1       58       26
Fe      -0.28815937      12.89707311      98.09516396       0.00013954      -0.00002517       0.00005579        0        0       -1       58       26
Fe       1.12695445      14.58624850      97.02032142       0.00013756       0.00005021      -0.00003344        0        0       -1       58       26
Fe      -0.28821404      15.65903232      98.70916270       0.00013681       0.00007671      -0.00002640        0        0       -1       58       26
Fe       1.12688753      17.34699935      97.63329727       0.00013723      -0.00004698       0.00009346        0        0       -1       58       26
Fe      -0.28826405      18.42039682      99.32248013       0.00014144      -0.00012901      -0.00001047        0        0       -1       58       26
Fe       1.12682647      20.10758924      98.24595892       0.00014139       0.00001170      -0.00014669        0        0       -1       58       26
Fe      -0.28830743      21.18158829      99.93525181       0.00014365       0.00015144       0.00006133        0        0       -1       58       26
Fe       1.12677318      22.86840643      98.85823854       0.00014032      -0.00000278       0.00020373        0        0       -1       58       26
Fe      -0.28834403      23.94284927     100.54767745       0.00014330      -0.00020522      -0.00009280        0        0       -1       58       26
Fe       1.12672611      25.62970972      99.47067542       0.00014020      -0.00003953      -0.00024567        0        0       -1       58       26
Fe       1.12699267       0.15003272      96.70428127       0.00013174       0.00003876       0.00022246        0        0       -1       58       26
Fe      -0.28818415       1.22544454      98.39414519       0.00013377      -0.00020976      -0.00014929        0        0       -1       58       26
Fe       1.12692403       2.91320004      97.31890999       0.00013524      -0.00006343      -0.00022328        0        0       -1       58       26
Fe      -0.28823803       3.98843713      99.00861595       0.00014049       0.00016011       0.00013400        0        0       -1       58       26
Fe       1.12685999       5.67775474      97.93513926       0.00013952       0.00003654       0.00019277        0        0       -1       58       26
Fe      -0.28828653       6.75234620      99.62449796       0.00014589      -0.00013423      -0.00011605        0        0       -1       58       26
Fe       1.12679948       8.44265879      98.55202472       0.00014382      -0.00006766      -0.00012492        0        0       -1       58       26
Fe      -0.28832878       9.51647797     100.24091700       0.00014861       0.00005080       0.00009508        0        0       -1       58       26
Fe       1.12674609      11.20690907      99.16841190       0.00014454       0.00005723       0.00004316        0        0       -1       58       26
Fe      -0.28836238      12.28030236     100.85706630       0.00014624       0.00000209      -0.00007571        0        0       -1       58       26
Fe       1.12670215      13.97009304      99.78374149       0.00013948      -0.00007327       0.00001884        0        0       -1       58       26
Fe      -0.28838843      15.04352860     101.47245595       0.00014347      -0.00007063       0.00004251        0        0       -1       58       26
Fe       1.12666448      16.73239765     100.39806527       0.00014092       0.00004757      -0.00006409        0        0       -1       58       26
Fe      -0.28840858      17.80615010     102.08704076       0.00014305       0.00009602      -0.00000541        0        0       -1       58       26
Fe       1.12663217      19.49423206     101.01161785       0.00014355      -0.00004116       0.00012232        0        0       -1       58       26
Fe      -0.28842317      20.56829427     102.70084247       0.00014343      -0.00014313      -0.00001376        0        0       -1       58       26
Fe       1.12660627      22.25578392     101.62456301       0.00014351       0.00001498      -0.00017102        0        0       -1       58       26
Fe      -0.28843247      23.32999870     103.31393842       0.00014672       0.00017318       0.00004927        0        0       -1       58       26
Fe       1.12658592      25.01719797     102.23710620       0.00014649      -0.00001200       0.00022119        0        0       -1       58       26
Fe      -0.28837488       0.61298846     101.16022439       0.00014282       0.00019542       0.00011956        0        0       -1       58       26
Fe       1.12668394       2.30036557     100.08383679       0.00014074       0.00002383       0.00023064        0        0       -1       58       26
Fe      -0.28840038       3.37490740     101.77347889       0.00014535      -0.00018874      -0.00012646        0        0       -1       58       26
Fe       1.12664671       5.06310210     100.69825008       0.00014489      -0.00005246      -0.00019326        0        0       -1       58       26
Fe      -0.28841911       6.13738745     102.38772065       0.00014525       0.00012093       0.00011277        0        0       -1       58       26
Fe       1.12661601       7.82650209     101.31376945       0.00014992       0.00005899       0.00012338        0        0       -1       58       26
Fe      -0.28843047       8.90049616     103.00292386       0.00014612      -0.00006181      -0.00010432        0        0       -1       58       26
Fe       1.12659354      10.59023352     101.92982247       0.00014732      -0.00008188      -0.00005829        0        0       -1       58       26
Fe      -0.28843421      11.66399620     103.61864497       0.00014421      -0.00000706       0.00008284        0        0       -1       58       26
Fe       1.12657856      13.35389895     102.54577662       0.00014491       0.00005949       0.00000218        0        0       -1       58       26
Fe       1.12657000      16.11725451     103.16128895       0.00014247      -0.00006221       0.00004378        0        0       -1       58       26
Fe       1.12656722      18.88012537     103.77616330       0.00014135       0.00005580      -0.00009048        0        0       -1       58       26
Fe       1.12657197       1.68737356     102.84978026       0.00014713      -0.00002574      -0.00022336        0        0       -1       58       26
Fe       1.12656476       4.44918006     103.46297698       0.00014777       0.00004533       0.00018668        0        0       -1       58       26
Fe      -0.28377117      14.25809879      78.38874066       0.00002113      -0.00013288       0.00019321        0        0       -1       50       26
Fe      -0.28356746      17.18124026      78.68483714       0.00001292      -0.00000547      -0.00005209        0        0       -1       58       26
Fe      -0.28398928      19.84199492      79.29420598       0.00002695      -0.00001281       0.00000320        0        0       -1       56       26
Fe      13.86230144      41.43099456       9.12896226       0.00012694       0.00005593      -0.00003453       -1       -1        0       58       26
Fe      -0.28420353      22.81121666      79.89328587       0.00002995       0.00001848       0.00000726        0        0       -1       55       26
Fe       1.13163860      24.61403797      78.60842762       0.00000320      -0.00002575       0.00000759        0        0       -1       61       26
Fe      -0.28442246      25.46165652      80.53339357       0.00004093      -0.00027245       0.00004136        0        0       -1       56       26
Fe      -0.28843576       0.00016938     103.92660045       0.00014978      -0.00019271      -0.00008662        0        0       -1       58       26
Fe       1.13216568      15.89062337      77.22975145      -0.00000442       0.00015420      -0.00008081        0        0       -1       53       26
Fe       1.13201715      18.83773763      77.40737722      -0.00000369      -0.00004471       0.00000688        0        0       -1       57       26
Fe       1.13131266      21.54480567      78.41274054       0.00001630      -0.00004324       0.00004175        0        0       -1       50       26
Fe       1.13323130      21.29563882      76.09725095      -0.00003601      -0.00007559      -0.00009439        0        0       -1       53       26
Fe       2.54720870      23.09976166      77.20390921      -0.00001158       0.00005191      -0.00004220        0        0       -1       55       26
Fe       1.13308067      24.03373938      75.48531417      -0.00003109       0.00012984       0.00015836        0        0       -1       54       26
Fe       2.54786361      25.61088322      76.62258957      -0.00002368      -0.00034521      -0.00009873        0        0       -1       56       26
Fe       1.13341569       0.71541376      74.93501577      -0.00003920      -0.00011816      -0.00019361        0        0       -1       57       26
Fe       2.54806993       2.45200764      75.97105372      -0.00002449       0.00025066      -0.00011254        0        0       -1       56       26
Fe       1.13355338       3.53080142      74.33005252      -0.00003993      -0.00003644       0.00020936        0        0       -1       58       26
Fe       2.54816973       5.17801697      75.46554269      -0.00003349      -0.00015129       0.00008733        0        0       -1       57       26
Fe       1.13375105       6.29726939      73.78841836      -0.00004868       0.00001565      -0.00010320        0        0       -1       58       26
Fe       2.54848454       7.98999709      74.88532445      -0.00004346       0.00002669      -0.00001399        0        0       -1       57       26
Fe       1.13396124       9.06574579      73.18555184      -0.00005283       0.00000201       0.00004973        0        0       -1       58       26
Fe       2.54864342      10.76369359      74.25267076      -0.00004289      -0.00005129      -0.00002705        0        0       -1       56       26
Fe       1.13415684      11.83013535      72.54798278      -0.00005875      -0.00003053      -0.00000027        0        0       -1       58       26
Fe       2.54819730      14.17511497      76.12031741      -0.00003104      -0.00004377      -0.00018951        0        0       -1       52       26
Fe       1.13359692      15.33367600      74.59471617      -0.00004017      -0.00009901       0.00012683        0        0       -1       54       26
Fe       2.54787302      17.11990288      75.75942322      -0.00002950      -0.00013536       0.00016639        0        0       -1       56       26
Fe       1.13364579      17.97625174      73.94469935      -0.00004283      -0.00002554      -0.00016411        0        0       -1       56       26
Fe       2.54838105      19.55785904      75.18972532      -0.00004007       0.00012527       0.00003098        0        0       -1       56       26
Fe       1.13390647      20.66277891      73.42731902      -0.00005209       0.00008286       0.00013904        0        0       -1       57       26
Fe       2.54856874      22.36419908      74.43690869      -0.00004427      -0.00022110      -0.00002583        0        0       -1       55       26
Fe       1.13403621      23.45820643      72.76573354      -0.00005431      -0.00010571      -0.00013699        0        0       -1       58       26
Fe       2.54868824      25.14542700      73.83633718      -0.00004715       0.00018882       0.00004026        0        0       -1       58       26
Fe       1.13419030       0.15065799      72.17062381      -0.00005780       0.00003504       0.00013268        0        0       -1       58       26