25296
Lattice="16.98 0.0 0.0 0.0 92.13812457 0.0 0.0 0.0 183.69805469" Properties=species:S:1:pos:R:3:force:R:3:map_shift:I:3:n_neighb:I:1:Z:I:1 nneightol=1.2 virial="-150.2998147 -0.07887616 0.15495086 -0.07887616 -382.39154794 33.46085395 0.15495086 33.46085395 -0.21422908" energy=-101311.13499391 cutoff=5.3 pbc="T T T"
Fe      15.28831276      57.31111243       9.25945665      -0.00045645       0.00079749      -0.00040724       -1       -1        0       58       26 
Fe      -0.28051261       2.58681386     138.11088949       0.00055511       0.00133542       0.00108359        0        0       -1       56       26 
Fe      -0.28000705       5.58420708     138.63771322      -0.00010175      -0.00148602      -0.00048264        0        0       -1       56       26 
Fe      -0.27982659       8.47486586     138.90092785      -0.00007300       0.00012511      -0.00121797        0        0       -1       60       26 
Fe      13.87317363      56.18093083       7.60742282      -0.00193288       0.00141271       0.00118202       -1       -1        0       58       26 
Fe      -0.27878289      11.12648734     139.50374570      -0.00063231      -0.00074596      -0.00079953        0        0       -1       56       26 
Fe       1.13550015      12.83082704     138.59204157      -0.00040003       0.00034577      -0.00210100        0        0       -1       52       26 
Fe      -0.27842832      14.04685264     140.10884567      -0.00035639      -0.00006629      -0.00121416        0        0       -1       55       26 
Fe       1.13486526      15.77737941     138.88904098      -0.00046373      -0.00041052      -0.00120474        0        0       -1       58       26 
Fe      -0.27843841      16.72762090     140.67897742      -0.00071890       0.00034925      -0.00074862        0        0       -1       56       26 
Fe       1.13575466      18.28253154     139.42464570      -0.00074432       0.00106694       0.00030474        0        0       -1       56       26 
Fe      -0.27808677      19.49569316     141.13170560      -0.00052188       0.00022926       0.00138544        0        0       -1       57       26 
Fe       1.13603101      21.23285022     140.06855668      -0.00040165      -0.00022145      -0.00003501        0        0       -1       55       26 
Fe      -0.27820015      22.28515268     141.73863949      -0.00056259       0.00044309      -0.00113448        0        0       -1       58       26 
Fe       1.13549517      23.93252757     140.65849156      -0.00029426       0.00046567      -0.00038483        0        0       -1       56       26 
Fe      -0.27806436      25.07355342     142.27346553      -0.00054548       0.00084547       0.00089961        0        0       -1       58       26 
Fe       1.13565697      26.70056214     141.11492157      -0.00040727       0.00088937       0.00166905        0        0       -1       57       26 
Fe      -0.27774379      27.82328609     142.80280689      -0.00025772       0.00046222       0.00188598        0        0       -1       58       26 
Fe       1.13708329      29.49397395     141.72553293      -0.00041588       0.00027103      -0.00047280        0        0       -1       58       26 
Fe      -0.27731452      30.61491116     143.37997074      -0.00098106       0.00006387      -0.00136125        0        0       -1       58       26 
Fe       1.13644043      32.27904046     142.26446009      -0.00060213       0.00009146      -0.00025693        0        0       -1       58       26 
Fe      -0.27700208      33.38597260     143.92416517      -0.00038979      -0.00096613      -0.00107176        0        0       -1       58       26 
Fe       1.13431778      35.02761201     142.80559133      -0.00024547      -0.00088083      -0.00017757        0        0       -1       58       26 
Fe      -0.27656306      36.16567119     144.46417382      -0.00124450      -0.00123671       0.00093973        0        0       -1       58       26 
Fe       1.13594270      37.82944283     143.37161896      -0.00068376      -0.00044417      -0.00029972        0        0       -1       58       26 
Fe      -0.27642959      38.97339379     144.99948968      -0.00025604      -0.00003753      -0.00108483        0        0       -1       58       26 
Fe       1.13733195      40.62592003     143.87383088      -0.00011689      -0.00090371       0.00203921        0        0       -1       58       26 
Fe      -0.27618806      41.77383896     145.49839348      -0.00054194      -0.00054094       0.00113499        0        0       -1       58       26 
Fe       1.13814574      43.42093797     144.35886450      -0.00096757       0.00094306       0.00035568        0        0       -1       58       26 
Fe      -0.27598449      44.57408596     145.98571172      -0.00084351       0.00108668      -0.00022428        0        0       -1       58       26 
Fe       1.13510348       1.03771458     139.23801800      -0.00014014      -0.00192322       0.00060360        0        0       -1       57       26 
Fe      -0.27841899       2.25334141     140.87137020      -0.00049761      -0.00111695       0.00107254        0        0       -1       58       26 
Fe       1.13605857       3.88285331     139.73019329      -0.00082760       0.00137632      -0.00008052        0        0       -1       57       26 
Fe      -0.27782131       5.09919789     141.32687401      -0.00045905       0.00096894       0.00065608        0        0       -1       58       26 
Fe       1.13642908       6.79425002     140.16914398      -0.00073487      -0.00009325       0.00024424        0        0       -1       58       26 
Fe      -0.27739959       7.89535545     141.80876201      -0.00075825      -0.00102846       0.00025460        0        0       -1       58       26 
Fe       1.13681271       9.51372849     140.62207643      -0.00065856      -0.00006334      -0.00074795        0        0       -1       56       26 
Fe      -0.27691734      10.64454610     142.30715590      -0.00106003      -0.00006764      -0.00057130        0        0       -1       58       26 
Fe       1.13742423      12.30749590     141.18527674      -0.00078691      -0.00052086      -0.00012002        0        0       -1       57       26 
Fe      -0.27673296      13.41826383     142.87001619      -0.00056413       0.00024694      -0.00029490        0        0       -1       58       26 
Fe       1.13746744      15.08984052     141.77739855      -0.00064545      -0.00004883      -0.00097632        0        0       -1       58       26 
Fe      -0.27665963      16.20928421     143.43289888      -0.00113984      -0.00036143      -0.00031433        0        0       -1       58       26 
Fe       1.13754751      17.86969259     142.29732217      -0.00035363       0.00001485       0.00038296        0        0       -1       58       26 
Fe      -0.27679305      18.97688670     143.96072924      -0.00026964       0.00074051       0.00057618        0        0       -1       58       26 
Fe       1.13780326      20.61659496     142.82374101      -0.00125697       0.00032238       0.00069894        0        0       -1       58       26 
Fe      -0.27684206      21.74351434     144.49728861      -0.00071225       0.00057295       0.00085095        0        0       -1       58       26 
Fe       1.13792959      23.40923179     143.39470572      -0.00004295      -0.00031277       0.00042282        0        0       -1       58       26 
Fe      -0.27688560      24.52803297     145.05174381      -0.00083314      -0.00045256       0.00021404        0        0       -1       58       26 
Fe       1.13929498      26.18299185     143.93178686      -0.00131259       0.00185593       0.00090729        0        0       -1       58       26 
Fe      -0.27680002      27.29999545     145.59290098      -0.00054618       0.00281571       0.00037178        0        0       -1       58       26 
Fe       1.13940703      28.94924310     144.47338206      -0.00013242       0.00038337       0.00052809        0        0       -1       58       26 
Fe      -0.27649935      30.07450720     146.13773220      -0.00116483       0.00042220      -0.00067150        0        0       -1       58       26 
Fe       1.13937104      31.73332236     145.03432593      -0.00104672      -0.00064904      -0.00202385        0        0       -1       58       26 
Fe      -0.27631214      32.86179148     146.68672475      -0.00063498      -0.00056205      -0.00226324        0        0       -1       58       26 
Fe       1.13897264      34.51483524     145.57478705      -0.00015105       0.00027554      -0.00042959        0        0       -1       58       26 
Fe      16.70397033      35.65454761     147.21947807      -0.00097574      -0.00030301      -0.00113380       -1        0       -1       58       26 
Fe       1.13852609      37.31106750     146.10661635      -0.00132934      -0.00127094       0.00002036        0        0       -1       58       26 
Fe      -0.27578838      38.45627720     147.74379754      -0.00122543      -0.00041729      -0.00027334        0        0       -1       58       26 
Fe       1.13867783      40.11812430     146.62743776      -0.00056674       0.00042760      -0.00116451        0        0       -1       58       26 
Fe      -0.27565412      41.26091914     148.25734428      -0.00081503      -0.00016591      -0.00262297        0        0       -1       58       26 
Fe       1.13916511      42.91925933     147.12524656      -0.00139349       0.00016330       0.00016408        0        0       -1       58       26 
Fe      -0.27557664      44.05789711     148.75706952      -0.00036689      -0.00094748      -0.00108605        0        0       -1       58       26 
Fe       1.13931243      45.71495511     147.61690139      -0.00005129       0.00025268      -0.00216825        0        0       -1       58       26 
Fe       1.13717425       0.65616628     142.07844724      -0.00086992       0.00024297      -0.00011773        0        0       -1       58       26 
Fe      -0.27677910       1.81482990     143.68472541      -0.00073651       0.00014962      -0.00059586        0        0       -1       58       26 
Fe       1.13776058       3.44488901     142.49459413      -0.00039969      -0.00042084       0.00062072        0        0       -1       58       26 
Fe      -0.27634678       4.59208659     144.13400305      -0.00080311      -0.00062390       0.00145887        0        0       -1       58       26 
Fe       1.13833029       6.23955371     142.96881472      -0.00116267       0.00046652       0.00110195        0        0       -1       58       26 
Fe      -0.27591355       7.36268807     144.62553220      -0.00132918      -0.00049884       0.00053358        0        0       -1       58       26 
Fe       1.13860765       9.00825474     143.46962405      -0.00056680      -0.00111126       0.00090986        0        0       -1       58       26 
Fe      -0.27571506      10.12387266     145.13647045      -0.00122584       0.00043720       0.00053905        0        0       -1       58       26 
Fe       1.13891343      11.76381346     143.98971322      -0.00137035       0.00093063      -0.00032644        0        0       -1       58       26 
Fe      -0.27566302      12.88782005     145.66375834      -0.00087222      -0.00013471      -0.00068598        0        0       -1       58       26 
Fe       1.13888193      14.54196124     144.54160021      -0.00080869      -0.00049988      -0.00048421        0        0       -1       58       26 
Fe      -0.27572235      15.66561124     146.20842013      -0.00129327       0.00021876      -0.00065289        0        0       -1       58       26 
Fe       1.13881497      17.32505104     145.09054800      -0.00091742       0.00003039       0.00005074        0        0       -1       58       26 
Fe      -0.27599346      18.44405702     146.75109146      -0.00080135      -0.00005058       0.00079480        0        0       -1       58       26 
Fe       1.13874842      20.09516282     145.62392932      -0.00082239       0.00103711       0.00101379        0        0       -1       58       26 
Fe      -0.27624596      21.21705348     147.28639943      -0.00080069       0.00062842       0.00129575        0        0       -1       58       26 
Fe       1.13885164      22.86842817     146.16366462      -0.00075701       0.00075756      -0.00038826        0        0       -1       58       26 
Fe      -0.27651696      23.99223949     147.82712503      -0.00110822       0.00253097      -0.00007818        0        0       -1       58       26 
Fe       1.13904493      25.64753137     146.71155603      -0.00026298       0.00085554       0.00053953        0        0       -1       58       26 
Fe      -0.27669175      26.77145567     148.37059725      -0.00081652       0.00051224       0.00043195        0        0       -1       58       26 
Fe       1.13929986      28.42313980     147.25264634      -0.00152921       0.00289653       0.00019517        0        0       -1       58       26 
Fe      -0.27664681      29.55259003     148.90903432      -0.00049017       0.00217412      -0.00041177        0        0       -1       58       26 
Fe       1.13927705      31.20563183     147.79454412      -0.00088172      -0.00077176      -0.00062537        0        0       -1       58       26 
Fe      -0.27634601      32.34204257     149.44544150      -0.00102915      -0.00019235       0.00029863        0        0       -1       58       26 
Fe       1.13929542      33.99884742     148.33332018      -0.00085390      -0.00051770      -0.00250482        0        0       -1       58       26 
Fe      -0.27610538      35.13877798     149.97708729      -0.00110735      -0.00025645      -0.00114179        0        0       -1       58       26 
Fe       1.13908372      36.79688691     148.86018738      -0.00020563      -0.00001283      -0.00037645        0        0       -1       58       26 
Fe      -0.27607481      37.93785594     150.50015677       0.00007043       0.00029425      -0.00155151        0        0       -1       58       26 
Fe       1.13921113      39.59888437     149.37975359      -0.00051589      -0.00162154      -0.00170738        0        0       -1       58       26 
Fe      -0.27579063      40.73689271     151.01727870      -0.00112472       0.00027204      -0.00011676        0        0       -1       58       26 
Fe       1.13942548      42.39850754     149.89090842      -0.00089354       0.00084736      -0.00204100        0        0       -1       58       26 
Fe      -0.27581526      43.53101043     151.52891291       0.00010163       0.00096848      -0.00147047        0        0       -1       58       26 
Fe       1.13957572      45.18948021     150.39431096      -0.00113301      -0.00009911       0.00027425        0        0       -1       58       26 
Fe       1.13849725       0.16581661     144.84811226      -0.00005020      -0.00051121       0.00035777        0        0       -1       58       26 
Fe      -0.27577171       1.30399385     146.47259337      -0.00104547      -0.00090876      -0.00052568        0        0       -1       58       26 
Fe       1.13904640       2.95345128     145.31077125      -0.00098525      -0.00015091      -0.00001926        0        0       -1       58       26 
Fe      -0.27553111       4.07919837     146.95121241      -0.00085452       0.00037003      -0.00035977        0        0       -1       58       26 
Fe       1.13933513       5.71967554     145.78527729      -0.00041495      -0.00174222       0.00085877        0        0       -1       58       26 
Fe      -0.27529493       6.84076724     147.44157579      -0.00143867       0.00037219       0.00038184        0        0       -1       58       26 
Fe       1.13960674       8.48190236     146.28709922      -0.00114393       0.00109519       0.00035474        0        0       -1       58       26 
Fe      -0.27535226       9.60244983     147.94917810      -0.00080454       0.00109943      -0.00018669        0        0       -1       58       26 
Fe       1.13954639      11.24419313     146.80319034      -0.00045020       0.00131702      -0.00072592        0        0       -1       58       26 
Fe      -0.27545072      12.36760531     148.46795918      -0.00067277       0.00078369       0.00160114        0        0       -1       58       26 
Fe       1.13958448      14.01301824     147.33248590      -0.00164834      -0.00040345       0.00050603        0        0       -1       58       26 
Fe      -0.27566846      15.13838325     148.99844305      -0.00057334      -0.00053648       0.00034016        0        0       -1       58       26 
Fe       1.13912621      16.78943624     147.87299820       0.00006722      -0.00011175      -0.00040617        0        0       -1       58       26 
Fe      -0.27602759      17.91416263     149.53606937      -0.00058961       0.00002469      -0.00057663        0        0       -1       58       26 
Fe       1.13904949      19.56616335     148.41204505      -0.00162502       0.00026099       0.00040588        0        0       -1       58       26 
Fe      -0.27646047      20.69048257     150.07267136      -0.00117297       0.00096712       0.00099584        0        0       -1       58       26 
Fe       1.13865196      22.34075878     148.94815659      -0.00070521       0.00124545       0.00256971        0        0       -1       58       26 
Fe      -0.27712920      23.46731384     150.60843750      -0.00054249       0.00050470       0.00147393        0        0       -1       58       26 
Fe       1.13839453      25.11843974     149.48804681      -0.00063086       0.00245184      -0.00116900        0        0       -1       58       26 
Fe      -0.27752586      26.24844026     151.14575553      -0.00090674       0.00249382      -0.00101127        0        0       -1       58       26 
Fe       1.13825233      27.90075786     150.02699649      -0.00051839       0.00016529       0.00042464        0        0       -1       58       26 
Fe      -0.27770935      29.03477169     151.68008164       0.00034311      -0.00040207       0.00113491        0        0       -1       58       26 
Fe       1.13840502      30.68747531     150.56112701      -0.00097298       0.00230548       0.00100225        0        0       -1       58       26 
Fe      -0.27729512      31.82489125     152.21049111      -0.00019567       0.00173503       0.00151514        0        0       -1       58       26 
Fe       1.13865199      33.48088729     151.09281594      -0.00093078       0.00056700       0.00030808        0        0       -1       58       26 
Fe      -0.27683505      34.61946898     152.73879864      -0.00049578       0.00090427       0.00009389        0        0       -1       58       26 
Fe       1.13873915      36.27832302     151.61993810      -0.00036826      -0.00015527      -0.00082932        0        0       -1       58       26 
Fe      -0.27657101      37.41589400     153.26318857       0.00011834      -0.00045743      -0.00099111        0        0       -1       58       26 
Fe       1.13889149      39.07571210     152.14073512      -0.00024832       0.00087194      -0.00056604        0        0       -1       58       26 
Fe      -0.27641232      40.21041566     153.78302261       0.00086910       0.00062391       0.00062100        0        0       -1       58       26 
Fe       1.13896104      41.87073037     152.65750439       0.00091450       0.00010981      -0.00059920        0        0       -1       58       26 
Fe      -0.27611351      43.00098602     154.30060597       0.00075548       0.00123478       0.00115510        0        0       -1       58       26 
Fe       1.13915621      44.65967546     153.17089151       0.00083018       0.00050340       0.00057443        0        0       -1       58       26 
Fe      -0.27569794      45.78617963     154.81612477      -0.00001004      -0.00180853      -0.00035047        0        0       -1       58       26 
Fe      -0.27541831       0.77683927     149.25435877      -0.00081136       0.00078369      -0.00083354        0        0       -1       58       26 
Fe       1.13960726       2.43158416     148.10871222      -0.00072367      -0.00079438       0.00014514        0        0       -1       58       26 
Fe      -0.27539490       3.55396380     149.75270303      -0.00044119      -0.00066999      -0.00149029        0        0       -1       58       26 
Fe       1.13968442       5.19996829     148.59974543      -0.00064757       0.00074774      -0.00140909        0        0       -1       58       26 
Fe      -0.27551251       6.32026430     150.25165281       0.00035666       0.00081303      -0.00018057        0        0       -1       58       26 
Fe       1.13968024       7.96152790     149.09926691      -0.00072197       0.00101810      -0.00038056        0        0       -1       58       26 
Fe      -0.27561090       9.08370999     150.75681330      -0.00010452       0.00098653       0.00047907        0        0       -1       58       26 
Fe       1.13955376      10.72510848     149.61033159      -0.00078514       0.00124108       0.00158344        0        0       -1       58       26 
Fe      -0.27590625      11.84890735     151.27114224       0.00017579       0.00022172       0.00114076        0        0       -1       58       26 
Fe       1.13930179      13.49220620     150.13158883      -0.00060612      -0.00017148       0.00145611        0        0       -1       58       26 
Fe      -0.27614340      14.61747979     151.79412206      -0.00056718       0.00171661       0.00122271        0        0       -1       58       26 
Fe       1.13902098      16.26424905     150.66232394      -0.00131377      -0.00032737       0.00132458        0        0       -1       58       26 
Fe      -0.27667333      17.39125016     152.32453181      -0.00066754      -0.00100615      -0.00041956        0        0       -1       58       26 
Fe       1.13837348      19.04019743     151.19779822      -0.00035814       0.00026192      -0.00117762        0        0       -1       58       26 
Fe      -0.27745806      20.16817936     152.85781669      -0.00033038      -0.00114720      -0.00122280        0        0       -1       58       26 
Fe       1.13768280      21.81738456     151.73233941      -0.00015121       0.00088584      -0.00037616        0        0       -1       58       26 
Fe      -0.27838474      22.94695780     153.39009495       0.00012312       0.00214032      -0.00062102        0        0       -1       58       26 
Fe       1.13702922      24.59711223     152.26638997      -0.00010391       0.00119881       0.00147900        0        0       -1       58       26 
Fe      -0.27923743      25.73038184     153.92156325       0.00163813       0.00008638      -0.00000265        0        0       -1       58       26 
Fe       1.13661704      27.38229174     152.80034951       0.00060696       0.00065908      -0.00129122        0        0       -1       58       26 
Fe      -0.27920626      28.51809283     154.45267563       0.00085106      -0.00036878      -0.00209388        0        0       -1       58       26 
Fe       1.13690009      30.17119399     153.33109424      -0.00003498      -0.00071617       0.00044382        0        0       -1       58       26 
Fe      -0.27854678      31.30782967     154.98100545       0.00030328       0.00040737      -0.00010976        0        0       -1       58       26 
Fe       1.13736548      32.96249542     153.85886487       0.00039287       0.00209483       0.00068465        0        0       -1       58       26 
Fe      -0.27778434      34.09944263     155.50669396       0.00132220       0.00168520      -0.00013733        0        0       -1       58       26 
Fe       1.13796405      35.75675770     154.38457507       0.00012077       0.00093550       0.00004865        0        0       -1       58       26 
Fe      -0.27690786      36.89232212     156.03074654      -0.00012227      -0.00014362       0.00019533        0        0       -1       58       26 
Fe       1.13837247      38.55104329     154.90747331       0.00065473       0.00012018      -0.00036992        0        0       -1       58       26 
Fe      -0.27641401      39.68349249     156.55344713       0.00017127       0.00092874      -0.00038829        0        0       -1       58       26 
Fe       1.13882287      41.34206205     155.42764552       0.00027121       0.00009405       0.00107377        0        0       -1       58       26 
Fe      -0.27589577      42.47120729     157.07448538       0.00035174       0.00044357      -0.00020459        0        0       -1       58       26 
Fe       1.13928868      44.12891158     155.94646104       0.00009862       0.00008552      -0.00046275        0        0       -1       58       26 
Fe      -0.27527358      45.25520862     157.59419611      -0.00065907      -0.00048483       0.00060952        0        0       -1       58       26 
Fe      -0.27572296       0.24739765     152.03641261       0.00051331       0.00025652       0.00021632        0        0       -1       58       26 
Fe       1.13962487       1.90209051     150.89741355      -0.00107807       0.00025800      -0.00189988        0        0       -1       58       26 
Fe      -0.27568879       3.02519903     152.54381681       0.00102910       0.00130934       0.00072594        0        0       -1       58       26 
Fe       1.13944181       4.67501693     151.40086734       0.00023153       0.00207721      -0.00046888        0        0       -1       58       26 
Fe      -0.27558989       5.79703892     153.05119946      -0.00022824      -0.00095476      -0.00156341        0        0       -1       58       26 
Fe       1.13942087       7.44193072     151.90508785      -0.00062968      -0.00101056      -0.00004172        0        0       -1       58       26 
Fe      -0.27592970       8.56408599     153.55962776       0.00039576       0.00047108       0.00013342        0        0       -1       58       26 
Fe       1.13899211      10.20665581     152.41453258       0.00054687       0.00088516       0.00090315        0        0       -1       58       26 
Fe      -0.27638231      11.33048169     154.07220009       0.00096578       0.00000883       0.00029556        0        0       -1       58       26 
Fe       1.13873693      12.97351369     152.93139217      -0.00031831       0.00040832       0.00061981        0        0       -1       58       26 
Fe      -0.27682679      14.09970286     154.59047272       0.00020212      -0.00008444       0.00066708        0        0       -1       58       26 
Fe       1.13810450      15.74438279     153.45511756       0.00054191       0.00070313       0.00097795        0        0       -1       58       26 
Fe      -0.27764295      16.87251596     155.11481917       0.00125012       0.00093023      -0.00085895        0        0       -1       58       26 
Fe       1.13742394      18.51961302     153.98483111       0.00012673      -0.00083524      -0.00081251        0        0       -1       58       26 
Fe      -0.27838476      19.64951969     155.64320562       0.00053264      -0.00098171      -0.00094786        0        0       -1       58       26 
Fe       1.13648814      21.29791808     154.51599983       0.00040284      -0.00006048      -0.00233590        0        0       -1       58       26 
Fe      16.70045916      22.43015371     156.17157733       0.00186695      -0.00142380      -0.00127093       -1        0       -1       58       26 
Fe       1.13539962      24.07959816     155.04535779       0.00169348       0.00069022      -0.00103495        0        0       -1       58       26 
Fe      -0.28037586      25.21375766     156.69861521       0.00276144      -0.00035345       0.00119303        0        0       -1       58       26 
Fe       1.13500787      26.86544890     155.57464891       0.00148078      -0.00136604       0.00006115        0        0       -1       58       26 
Fe      -0.28040281      28.00033758     157.22672949       0.00288575      -0.00008382       0.00003268        0        0       -1       58       26 
Fe       1.13523990      29.65400748     156.10387915       0.00274854      -0.00040709      -0.00145894        0        0       -1       58       26 
Fe      -0.27941720      30.78964276     157.75432717       0.00197194      -0.00043740      -0.00248298        0        0       -1       58       26 
Fe       1.13644275      32.44425780     156.63040295       0.00075111      -0.00066447      -0.00120982        0        0       -1       58       26 
Fe      -0.27787440      33.57980380     158.27948934      -0.00016572      -0.00146391      -0.00084639        0        0       -1       58       26 
Fe       1.13762797      35.23515039     157.15465975      -0.00035961       0.00078214      -0.00111727        0        0       -1       58       26 
Fe      -0.27689592      36.36892595     158.80312552       0.00016658       0.00053136       0.00110380        0        0       -1       58       26 
Fe       1.13830251      38.02559373     157.67808134       0.00067007       0.00014941       0.00088113        0        0       -1       58       26 
Fe      -0.27619961      39.15680881     159.32673250      -0.00010159      -0.00012673       0.00146558        0        0       -1       58       26 
Fe       1.13901216      40.81383340     158.20115762      -0.00012378       0.00041420      -0.00008411        0        0       -1       58       26 
Fe      -0.27554428      41.94238226     159.85044828      -0.00161532      -0.00020808      -0.00010625        0        0       -1       58       26 
Fe       1.13957859      43.59872014     158.72294981      -0.00047089       0.00019788      -0.00049349        0        0       -1       58       26 
Fe      -0.27514747      44.72479277     160.37277490      -0.00166034       0.00171947       0.00003828        0        0       -1       58       26 