19620
Lattice="16.98 0.0 0.0 0.0 81.03886722 0.0 0.0 0.0 162.07802331" Properties=species:S:1:pos:R:3:force:R:3:map_shift:I:3:n_neighb:I:1:Z:I:1 adsorbate_info=T cutoff=5.3 virial="-159.78146089 -0.52686054 -2.74106765 -0.52686054 -304.72744628 -10.44301842 -2.74106765 -10.44301842 -0.75367374" nneightol=1.2 energy=-78547.37307213 pbc="T T T"
Fe       1.27199162      16.20865035     121.08036581       0.00271992      -0.01159803      -0.00493331        0        0       -1       51       26 
Fe      -0.13261711       2.68889984     122.19905650       0.00548240       0.00358690       0.00116341        0        0       -1       52       26 
Fe      -0.13414540       5.65861658     122.54176349      -0.00402129       0.00094327      -0.00496453        0        0       -1       58       26 
Fe      14.14996244      79.85360452       5.49267153      -0.00018158      -0.00048387       0.00128015       -1       -1        0       58       26 
Fe      -0.12878277       8.15254952     123.09696763       0.00034107      -0.01012039      -0.00065531        0        0       -1       56       26 
Fe       1.28247624       9.87075513     122.19319066      -0.00069365      -0.00324106       0.00177295        0        0       -1       52       26 
Fe      -0.12611826      11.06501685     123.76454935      -0.00155121      -0.00985651      -0.00780767        0        0       -1       55       26 
Fe       1.27847745      12.76729540     122.60968303       0.00567633      -0.00798109       0.00792484        0        0       -1       57       26 
Fe      -0.12485805      13.81868892     124.31961838       0.00344295       0.01277800      -0.00226357        0        0       -1       58       26 
Fe       1.28665899      15.52058441     123.31450889       0.00471256      -0.00287831       0.00243396        0        0       -1       57       26 
Fe      -0.11997557      16.59784320     125.04015553      -0.00175451       0.00053978      -0.01648938        0        0       -1       56       26 
Fe       1.28842622      18.35393686     124.13708642       0.00127097       0.00284072       0.00958363        0        0       -1       56       26 
Fe      -0.11762842      19.42209913     125.77584693       0.00206736       0.00106509      -0.00376537        0        0       -1       58       26 
Fe       1.29383380      21.12056255     124.70646370      -0.00320859       0.00012900      -0.00077529        0        0       -1       57       26 
Fe      -0.11386756      22.18245464     126.38904461       0.00160605      -0.00094922       0.00063755        0        0       -1       58       26 
Fe       1.29753429      23.88904860     125.35819557      -0.00483257       0.00109796       0.00398811        0        0       -1       58       26 
Fe      -0.11091836      24.96710729     127.00766688      -0.00172178       0.00713497      -0.00129167        0        0       -1       58       26 
Fe       1.29886384      26.65167628     125.90694482       0.00295057       0.00274784      -0.00665800        0        0       -1       58       26 
Fe      -0.10812611      27.72358034     127.56836147      -0.00498077      -0.00124834      -0.00735255        0        0       -1       58       26 
Fe       1.30100561      29.37868908     126.44749624       0.00316536      -0.00575004      -0.00676052        0        0       -1       58       26 
Fe      -0.10720455      30.47405670     128.12384435       0.00443726      -0.00558780       0.00141154        0        0       -1       58       26 
Fe       1.30304991      32.15517397     127.03653110       0.00338796       0.00666730      -0.00095891        0        0       -1       58       26 
Fe      -0.10382208      33.24303193     128.69852159       0.00002519       0.00374080       0.00414416        0        0       -1       58       26 
Fe       1.30708154      34.91491721     127.59000526      -0.00401926      -0.00474629      -0.00126734        0        0       -1       58       26 
Fe      -0.10041273      36.00244257     129.25893485      -0.00301996       0.00893621       0.00697405        0        0       -1       58       26 
Fe       1.30897507      37.66914897     128.14710856       0.00322789      -0.00580985       0.00255042        0        0       -1       58       26 
Fe      -0.09835100      38.76273400     129.82455468      -0.00073422       0.00366281      -0.00213869        0        0       -1       58       26 
Fe       1.31230616      40.43829688     128.72329800      -0.00435131       0.00403438       0.00461728        0        0       -1       58       26 
Fe       1.28610565       0.95588663     123.07354718       0.00046408       0.00187738      -0.00425843        0        0       -1       56       26 
Fe      -0.12078531       2.14604906     124.78709755       0.00370046       0.00314918      -0.00505451        0        0       -1       57       26 
Fe       1.28966525       3.89359962     123.72864395      -0.00099942       0.00325409      -0.00343859        0        0       -1       55       26 
Fe      -0.11791866       4.92490037     125.40989150      -0.00341305       0.00194758       0.00365520        0        0       -1       57       26 
Fe       1.29116158       6.58432979     124.34167634       0.00236589      -0.00637545       0.00248233        0        0       -1       56       26 
Fe      -0.11543780       7.70632570     125.97123993      -0.00046109      -0.00370021       0.00252336        0        0       -1       58       26 
Fe       1.29620657       9.34384479     124.82123694      -0.00325489      -0.00389174      -0.00018158        0        0       -1       57       26 
Fe      -0.11348610      10.45778767     126.52232675       0.00163109      -0.00926137      -0.00120778        0        0       -1       58       26 
Fe       1.29776497      12.14962771     125.43752550       0.00380023      -0.00613080      -0.00461305        0        0       -1       58       26 
Fe      -0.11016300      13.21719388     127.14079544      -0.00348645       0.00797138       0.00453783        0        0       -1       58       26 
Fe       1.30066670      14.89110054     126.05936587       0.00173289       0.00247237       0.00922645        0        0       -1       59       26 
Fe      -0.10668859      15.97533107     127.78024218      -0.00219868       0.00221721       0.00924923        0        0       -1       58       26 
Fe       1.30460851      17.67821550     126.75702430      -0.00726439       0.00521213       0.00208014        0        0       -1       58       26 
Fe      -0.10365367      18.76354534     128.45449453      -0.00638622      -0.00009949       0.00086534        0        0       -1       58       26 
Fe       1.30613009      20.48411725     127.44239006      -0.00237828      -0.00554180       0.00152960        0        0       -1       58       26 
Fe      -0.10153811      21.56097066     129.11152086      -0.00291379       0.00354325       0.00101654        0        0       -1       58       26 
Fe       1.30765212      23.26233691     128.05805949       0.00671549      -0.00307727       0.01390070        0        0       -1       58       26 
Fe      -0.09997252      24.34323994     129.72652777       0.00334387       0.00554570       0.00265872        0        0       -1       58       26 
Fe       1.31101199      26.04228717     128.66248937       0.00027401       0.00408405      -0.00129395        0        0       -1       58       26 
Fe      -0.09678904      27.12172675     130.32222992      -0.00177410       0.00798213       0.00306586        0        0       -1       58       26 
Fe       1.31352775      28.80483968     129.23132329      -0.00176945       0.00197037      -0.00302722        0        0       -1       58       26 
Fe      -0.09422962      29.88992772     130.89597395      -0.00015944      -0.00033209      -0.00572169        0        0       -1       58       26 
Fe       1.31587433      31.56401829     129.79506792      -0.00140862       0.00863079      -0.00158440        0        0       -1       58       26 
Fe      -0.09187438      32.65311417     131.46475554       0.00429446       0.00388756      -0.01187802        0        0       -1       58       26 
Fe       1.31928502      34.33025478     130.36568758      -0.00499900       0.00615679       0.00432579        0        0       -1       58       26 
Fe      16.89088419      35.42025860     132.03500838       0.00476616      -0.00582074      -0.00088551       -1        0       -1       58       26 
Fe       1.32144960      37.09268106     130.93103701       0.00079368      -0.00115422      -0.00221135        0        0       -1       58       26 
Fe      -0.08577848      38.18076345     132.60495793      -0.00013463      -0.00389421       0.00015930        0        0       -1       58       26 
Fe       1.32337268      39.85343630     131.50109542       0.00583523      -0.00370482      -0.01089415        0        0       -1       58       26 
Fe       1.29912160       0.50610213     125.94132853       0.00097227       0.00798453      -0.00944925        0        0       -1       58       26 
Fe      -0.10816326       1.58952359     127.61226612      -0.00305182      -0.00338571      -0.00169911        0        0       -1       58       26 
Fe       1.30114092       3.24485881     126.48838439       0.00596773       0.00213076      -0.00765397        0        0       -1       58       26 
Fe      -0.10610915       4.34499774     128.17448082       0.00252804       0.00048624       0.00050068        0        0       -1       58       26 
Fe       1.30478386       6.02674954     127.08105744      -0.00168935      -0.00295881       0.00728102        0        0       -1       58       26 
Fe      -0.10269572       7.11771533     128.75617740      -0.00301565       0.00393659       0.00466859        0        0       -1       58       26 
Fe       1.30670321       8.79357736     127.64588076       0.00276822      -0.00134159       0.00524705        0        0       -1       58       26 
Fe      -0.10115948       9.87300193     129.33503182       0.00271546      -0.00268751       0.00448063        0        0       -1       58       26 
Fe       1.30955500      11.54007462     128.22741735       0.00054358      -0.00445238       0.00344560        0        0       -1       58       26 
Fe      -0.09828777      12.62118614     129.93038166       0.00211023      -0.00654534       0.00091180        0        0       -1       58       26 
Fe       1.31368867      14.29597419     128.84759407      -0.00915579      -0.01112297       0.00445954        0        0       -1       58       26 
Fe      -0.09563573      15.37945866     130.55043889       0.00375599      -0.00101279       0.00427126        0        0       -1       58       26 
Fe       1.31507941      17.06378672     129.48939849       0.00089361      -0.00927378      -0.00382806        0        0       -1       58       26 
Fe      -0.09329945      18.15325841     131.18639816       0.00481443      -0.00560323      -0.00014889        0        0       -1       58       26 
Fe       1.31750594      19.85143625     130.14336776       0.00214461      -0.00044235      -0.00013057        0        0       -1       58       26 
Fe      -0.08973204      20.93975052     131.82767940       0.00150419       0.00310361       0.00025683        0        0       -1       58       26 
Fe       1.32023254      22.64312058     130.78242694       0.00162999       0.00250316      -0.00381475        0        0       -1       58       26 
Fe      -0.08680663      23.72884907     132.45344884       0.00093054       0.00459684       0.00092245        0        0       -1       58       26 
Fe       1.32213065      25.42760809     131.39351021       0.00571998      -0.00226517      -0.01040380        0        0       -1       58       26 
Fe      -0.08470889      26.51433409     133.05851341       0.00688202       0.00031539       0.01198991        0        0       -1       58       26 
Fe       1.32506356      28.20689360     131.98512061       0.00406911      -0.00051747      -0.00089317        0        0       -1       58       26 
Fe      -0.08160385      29.29336980     133.65045479       0.00686053      -0.00922451       0.00280255        0        0       -1       58       26 
Fe       1.32872337      30.97604258     132.56173684      -0.00047357       0.00068883      -0.00158688        0        0       -1       58       26 
Fe      -0.07766480      32.06184250     134.22914137       0.00132542       0.00681850       0.00516010        0        0       -1       58       26 
Fe       1.33123963      33.74189482     133.13191249       0.00457355       0.00035714       0.01403159        0        0       -1       58       26 
Fe      -0.07445402      34.82700895     134.80418619       0.00030947       0.00429016       0.00253333        0        0       -1       58       26 
Fe       1.33413104      36.50591393     133.70780133       0.00509477      -0.00127631      -0.00362351        0        0       -1       58       26 
Fe      -0.07150405      37.59075548     135.38155800       0.00237461       0.00364325      -0.00097356        0        0       -1       58       26 
Fe       1.33752670      39.26686930     134.28001396       0.00099619       0.00007412       0.00749724        0        0       -1       58       26 
Fe      -0.06811676      40.35095382     135.95830069       0.00107085      -0.00275538      -0.00991707        0        0       -1       58       26 
Fe      -0.09624968       1.00721364     130.39728797      -0.00020431       0.00333213      -0.00164150        0        0       -1       58       26 
Fe       1.31421475       2.67727157     129.28679453      -0.00200632       0.00959459       0.00702314        0        0       -1       58       26 
Fe      -0.09368053       3.76626520     130.96455603      -0.00003178       0.00152565      -0.00087698        0        0       -1       58       26 
Fe       1.31621816       5.43894732     129.85678167       0.00254232      -0.00415494      -0.00215579        0        0       -1       58       26 
Fe      -0.09064148       6.52262798     131.54108828       0.00144517       0.00925960      -0.00024537        0        0       -1       58       26 
Fe       1.31882349       8.19974879     130.44158836       0.00015484       0.00237842      -0.00510380        0        0       -1       58       26 
Fe      -0.08769393       9.28054566     132.13046549       0.00239255      -0.00490082      -0.00351819        0        0       -1       58       26 
Fe       1.32099629      10.95179733     131.02936896       0.00347004      -0.00518983       0.00235129        0        0       -1       58       26 
Fe      -0.08447688      12.03366027     132.72418067       0.00101714      -0.00698859       0.00056776        0        0       -1       58       26 
Fe       1.32418374      13.70279948     131.62954516       0.00329403       0.00455747       0.00655533        0        0       -1       58       26 
Fe      -0.08116790      14.78846012     133.32535461      -0.00013854       0.00849158       0.01179103        0        0       -1       58       26 
Fe       1.32691236      16.46727884     132.24822633       0.00509778      -0.00147277       0.00277038        0        0       -1       58       26 
Fe      -0.07835773      17.55560091     133.94171140       0.00082372       0.00829500       0.00284797        0        0       -1       58       26 
Fe       1.32949988      19.24335185     132.87727379       0.00823501       0.00074009       0.00777296        0        0       -1       58       26 
Fe      -0.07538653      20.33481674     134.56421203       0.00329391       0.00354953      -0.00190743        0        0       -1       58       26 
Fe       1.33328546      22.03034298     133.50769475       0.00591183      -0.00504791      -0.00457609        0        0       -1       58       26 
Fe      -0.07158078      23.12076671     135.18483154      -0.00001161       0.00622403       0.00016979        0        0       -1       58       26 
Fe       1.33677476      24.81766310     134.12411161       0.00222760       0.00593241       0.00533505        0        0       -1       58       26 
Fe      -0.06857606      25.90727979     135.79671210       0.00080956       0.00038460      -0.00300160        0        0       -1       58       26 
Fe       1.34009430      27.60120222     134.72682275      -0.00015871       0.00113450       0.00206401        0        0       -1       58       26 
Fe      -0.06521801      28.68817895     136.39696061      -0.00086976      -0.00174952      -0.00186598        0        0       -1       58       26 
Fe       1.34360138      30.37778459     135.31889569      -0.00012174       0.00395212      -0.00256307        0        0       -1       58       26 
Fe      -0.06161473      31.46411328     136.98855110      -0.00250955      -0.00302847      -0.00298992        0        0       -1       58       26 
Fe       1.34718379      33.14806629     135.89955695      -0.00091394      -0.00457456      -0.00140267        0        0       -1       58       26 
Fe      -0.05829183      34.23268725     137.57224543      -0.00262390      -0.00715296      -0.00719850        0        0       -1       58       26 
Fe       1.35007359      35.91209182     136.47814084       0.00040875       0.00246977      -0.00618264        0        0       -1       58       26 
Fe      -0.05535327      36.99629715     138.15250457      -0.00227671       0.00111298      -0.00050966        0        0       -1       58       26 
Fe       1.35312121      38.67453957     137.05771371       0.00052124       0.00199940      -0.00956884        0        0       -1       58       26 
Fe      -0.05217704      39.75811264     138.73394507      -0.00261526      -0.00213343      -0.00312872        0        0       -1       58       26 
Fe      -0.08366533       0.42130028     133.17611985       0.00295740       0.00306276       0.01004621        0        0       -1       58       26 
Fe       1.32574545       2.09539481     132.07334633       0.00673579      -0.00060018      -0.00547016        0        0       -1       58       26 
Fe      -0.08125103       3.17972598     133.75173339       0.00649593      -0.00192329       0.00278247        0        0       -1       58       26 
Fe       1.32946374       4.85143068     132.64541815      -0.00065677      -0.00346359       0.00517441        0        0       -1       58       26 
Fe      -0.07761159       5.93308271     134.32887072       0.00409505       0.00104081       0.00770200        0        0       -1       58       26 
Fe       1.33235478       7.60523246     133.22674814      -0.00007337       0.00669927       0.00899291        0        0       -1       58       26 
Fe      -0.07400887       8.68715624     134.91424772       0.00321368       0.00362632       0.00185727        0        0       -1       58       26 
Fe       1.33602583      10.36157693     133.81941601      -0.00076728      -0.00116565       0.00273168        0        0       -1       58       26 
Fe      -0.07007895      11.44391271     135.50847136       0.00168587       0.00279188      -0.00390908        0        0       -1       58       26 
Fe       1.33962683      13.11731267     134.41678846      -0.00147138      -0.00213148      -0.00447723        0        0       -1       58       26 
Fe      -0.06656887      14.20393527     136.10567898       0.00212257      -0.00354424      -0.00486076        0        0       -1       58       26 
Fe       1.34289167      15.87747088     135.01964437      -0.00088806       0.00240258      -0.00737671        0        0       -1       58       26 
Fe      -0.06290342      16.96917241     136.70795809       0.00232267      -0.00361724      -0.00511837        0        0       -1       58       26 
Fe       1.34630517      18.64772647     135.63055464      -0.00060991       0.00685085      -0.00079149        0        0       -1       58       26 
Fe      -0.05861403      19.74183582     137.31551892      -0.00225119      -0.00284089       0.00009802        0        0       -1       58       26 
Fe       1.35012827      21.42792440     136.24648227      -0.00273549       0.00050538      -0.00010518        0        0       -1       58       26 
Fe      -0.05514900      22.52019806     137.92645221      -0.00413458       0.00432432       0.00833658        0        0       -1       58       26 
Fe       1.35352128      24.21225721     136.86073677      -0.00270254       0.00312686       0.00504571        0        0       -1       58       26 
Fe      -0.05239538      25.30259456     138.53748674      -0.00321604      -0.00106690       0.00287946        0        0       -1       58       26 
Fe       1.35677264      26.99631439     137.46971449      -0.00393715      -0.00697176      -0.00443408        0        0       -1       58       26 
Fe      -0.04932913      28.08339001     139.14311455      -0.00432941       0.00303910       0.00811265        0        0       -1       58       26 
Fe       1.35944061      29.77457713     138.06793566      -0.00084634       0.00361205       0.00797734        0        0       -1       58       26 
Fe      -0.04663171      30.86097881     139.74212408      -0.00404451      -0.00413508      -0.00455712        0        0       -1       58       26 
Fe       1.36251840      32.54895661     138.66050344      -0.00182453      -0.00496489      -0.00286876        0        0       -1       58       26 
Fe      -0.04415562      33.63312761     140.33382739      -0.00317694      -0.00117935       0.00061863        0        0       -1       58       26 
Fe       1.36568014      35.31618771     139.24472205      -0.00470266      -0.00071505       0.00636474        0        0       -1       58       26 
Fe      -0.04153703      36.39949731     140.91956741      -0.00350327      -0.00283161       0.00158731        0        0       -1       58       26 
Fe       1.36876204      38.07970726     139.82816014      -0.00600544      -0.00166056      -0.00347716        0        0       -1       58       26 
Fe      -0.03884332      39.16197971     141.50429020      -0.00318910       0.00178203      -0.00002855        0        0       -1       58       26 
Fe       1.34054108       1.50553144     134.85526522       0.00052863       0.00297949       0.00014948        0        0       -1       58       26 
Fe      -0.06481595       2.58875048     136.53594227      -0.00007583       0.00201163      -0.01176935        0        0       -1       58       26 
Fe       1.34368536       4.26165603     135.43313853       0.00181841       0.00283975       0.00054577        0        0       -1       58       26 
Fe      -0.06156715       5.34486009     137.11552351      -0.00072465      -0.00159318      -0.00375058        0        0       -1       58       26 
Fe       1.34669763       7.01570621     136.01393624       0.00489290      -0.00004559      -0.00337703        0        0       -1       58       26 
Fe      -0.05817481       8.09876694     137.69792230      -0.00117684       0.00350343       0.00273776        0        0       -1       58       26 
Fe       1.35070753       9.77041815     136.60145801       0.00229907       0.00384884      -0.00467990        0        0       -1       58       26 
Fe      -0.05442761      10.85612737     138.28606099      -0.00256617       0.00253360       0.00111455        0        0       -1       58       26 
Fe       1.35432199      12.53031758     137.19533479       0.00276992      -0.00247866      -0.00425900        0        0       -1       58       26 
Fe      -0.05085239      13.61807636     138.87980651      -0.00243574      -0.00146348      -0.00224878        0        0       -1       58       26 
Fe       1.35822387      15.29275068     137.79134523       0.00071814       0.00015843       0.00396476        0        0       -1       58       26 
Fe      -0.04681641      16.38251875     139.47592321      -0.00607919       0.00240920       0.00343247        0        0       -1       58       26 
Fe       1.36237954      18.06057927     138.39297159      -0.00322327       0.00033825       0.00132226        0        0       -1       58       26 
Fe      -0.04360336      19.15142676     140.07691873      -0.00622645       0.00500826       0.00535304        0        0       -1       58       26 
Fe       1.36599872      20.83370731     138.99893890      -0.00529082       0.00324693       0.00356422        0        0       -1       58       26 
Fe      16.93869969      21.92481946     140.68160289      -0.00406043       0.00542263       0.00231981       -1        0       -1       58       26 
Fe       1.36871939      23.61131837     139.60688683      -0.00491519       0.00389608       0.00384113        0        0       -1       58       26 
Fe      -0.03902269      24.70170801     141.28728143      -0.00296330       0.00467435       0.00412736        0        0       -1       58       26 
Fe       1.37128390      26.39141828     140.21497014      -0.00506720       0.00555315       0.00641130        0        0       -1       58       26 
Fe      -0.03671394      27.48102874     141.89375490      -0.00242868      -0.00185272      -0.00064838        0        0       -1       58       26 
Fe       1.37349780      29.17100670     140.81866428      -0.00343118      -0.00141608       0.00299536        0        0       -1       58       26 
Fe      -0.03481020      30.25809147     142.49563455      -0.00074596      -0.00671350      -0.00328469        0        0       -1       58       26 
Fe       1.37566606      31.94626168     141.41649661      -0.00280183      -0.00282504      -0.00269804        0        0       -1       58       26 
Fe      -0.03288953      33.03030596     143.09140169       0.00042818       0.00125715       0.00383577        0        0       -1       58       26 
Fe       1.37774549      34.71723928     142.00881459      -0.00102642      -0.00736297      -0.00488940        0        0       -1       58       26 
Fe      -0.03070021      35.80001307     143.68411607       0.00081280      -0.00747820      -0.00314373        0        0       -1       58       26 
Fe       1.38015124      37.48237046     142.59579231      -0.00008069      -0.00391833      -0.00130378        0        0       -1       58       26 
Fe      -0.02824454      38.56490225     144.27241817       0.00066611      -0.00170782      -0.00023654        0        0       -1       58       26 
Fe       1.38283549      40.24460514     143.18102502      -0.00026861       0.00186456       0.00372894        0        0       -1       58       26 
Fe       1.35648043       0.91465863     137.63613270      -0.00039153      -0.00344178      -0.00844935        0        0       -1       58       26 
Fe      -0.04878455       1.99699214     139.31361924      -0.00383486       0.00319869       0.00441741        0        0       -1       58       26 
Fe       1.36004429       3.67210305     138.21565296      -0.00229956      -0.00074615      -0.00333504        0        0       -1       58       26 
Fe      -0.04558797       4.75501813     139.89610935      -0.00407898      -0.00059730      -0.00287676        0        0       -1       58       26 
Fe       1.36337691       6.42836616     138.79825189      -0.00343940      -0.00165415      -0.00206812        0        0       -1       58       26 
Fe      -0.04258593       7.51341676     140.48067749      -0.00383121      -0.00439852      -0.00540002        0        0       -1       58       26 
Fe       1.36639269       9.18400285     139.38157367      -0.00218157       0.00320055       0.00468649        0        0       -1       58       26 
Fe      -0.03970355      10.27182729     141.06508713      -0.00308415      -0.00451346      -0.00099846        0        0       -1       58       26 
Fe       1.37011190      11.94310313     139.96958306      -0.00505900       0.00448772       0.00456010        0        0       -1       58       26 
Fe      -0.03675400      13.03144172     141.65283840      -0.00413478       0.00334497       0.00563782        0        0       -1       58       26 
Fe       1.37347251      14.70640339     140.56313637      -0.00639285       0.00073863       0.00083334        0        0       -1       58       26 
Fe      -0.03443838      15.79513666     142.24579268      -0.00242772       0.00330127       0.00571882        0        0       -1       58       26 
Fe       1.37613019      17.47301612     141.16023953      -0.00470352      -0.00177648      -0.00038247        0        0       -1       58       26 
Fe      -0.03260746      18.56274410     142.84329428       0.00025628       0.00116731       0.00230152        0        0       -1       58       26 
Fe       1.37834441      20.24285433     141.76068514      -0.00275485       0.00148272       0.00295577        0        0       -1       58       26 
Fe      -0.03056337      21.33370210     143.44424553       0.00109062      -0.00227707      -0.00386931        0        0       -1       58       26 
Fe       1.38030368      23.01609035     142.36371073      -0.00054329       0.00203919       0.00262283        0        0       -1       58       26 
Fe      -0.02830378      24.10629764     144.04612211       0.00094232       0.00165706      -0.00152628        0        0       -1       58       26 
Fe       1.38241055      25.79165165     142.96783619       0.00015114       0.00458039       0.00395638        0        0       -1       58       26 
Fe      -0.02610501      26.88069293     144.64921521       0.00060044      -0.00006519      -0.00549692        0        0       -1       58       26 
Fe       1.38447136      28.56919889     143.57270114       0.00080041      -0.00659674      -0.00587057        0        0       -1       58       26 
Fe      -0.02394397      29.65510095     145.25110377      -0.00013155      -0.00016814      -0.00235713        0        0       -1       58       26 