2400
Lattice="16.98 0.0 0.0 0.0 28.86045045 0.0 0.0 0.0 56.00971383" Properties=species:S:1:pos:R:3:force:R:3:map_shift:I:3:n_neighb:I:1:Z:I:1 nneightol=1.2 virial="-63.64682269 0.00389649 -0.04529306 0.00389649 -132.23590826 -20.84904601 -0.04529306 -20.84904601 0.4014042" energy=-9568.58328488 cutoff=5.3 pbc="T T T"
Fe      15.42212032      19.28489884      16.11418821       0.00042461       0.00013557      -0.00236779       -1       -1        0       55       26
Fe      16.83761668      17.59918696      14.90678856       0.00049721      -0.00061146      -0.00115175       -1       -1        0       58       26
Fe      -0.13937791       5.46872376      42.62442681       0.00015423       0.00240210       0.00113907        0        0       -1       52       26
Fe      15.42228170      16.58053894      16.61316935      -0.00060425       0.00076047      -0.00052907       -1       -1        0       56       26
Fe      -0.13940432       8.41107518      42.90832244      -0.00011631       0.00240356       0.00112717        0        0       -1       58       26
Fe      16.83730108      14.98323917      15.49807520       0.00011666      -0.00253156       0.00077349       -1       -1        0       56       26
Fe      -0.13890465      10.91329442      43.44361120      -0.00034572       0.00251750       0.00197317        0        0       -1       56       26
Fe       1.27579302      12.63206657      42.57721096       0.00020683       0.00067570      -0.00249104        0        0       -1       52       26
Fe      -0.13878251      13.85844499      44.09351933      -0.00046980       0.00003645      -0.00185948        0        0       -1       55       26
Fe       1.27540734       1.13956927      42.91603726       0.00022671       0.00111529      -0.00192799        0        0       -1       58       26
Fe      -0.13898634       2.16216211      44.61525711      -0.00001633      -0.00030090      -0.00265470        0        0       -1       56       26
Fe       1.27552652       3.76849665      43.50764641       0.00127478       0.00166954       0.00050913        0        0       -1       56       26
Fe      -0.13862442       4.94928997      45.18078310      -0.00055851       0.00310956       0.00160222        0        0       -1       57       26
Fe       1.27610416       6.69256235      44.12269241      -0.00069204       0.00275016       0.00041333        0        0       -1       55       26
Fe      -0.13834852       7.73066941      45.78534374      -0.00115054       0.00004557      -0.00024073        0        0       -1       58       26
Fe       1.27637213       9.36546780      44.68996245      -0.00075768       0.00234456       0.00178258        0        0       -1       56       26
Fe      -0.13826794      10.50844290      46.30611639      -0.00039748      -0.00043974       0.00150517        0        0       -1       58       26
Fe       1.27671386      12.13211257      45.14856889      -0.00139497       0.00094113       0.00144933        0        0       -1       57       26
Fe      -0.13819743      13.26692388      46.82929063      -0.00097541      -0.00232351       0.00091925        0        0       -1       58       26
Fe       1.27655454       0.51593489      45.74347025      -0.00051975      -0.00191427      -0.00365909        0        0       -1       58       26
Fe      -0.13831828       1.62327902      47.40470029      -0.00061489      -0.00129437      -0.00166220        0        0       -1       58       26
Fe       1.27653371       3.28216426      46.28603377      -0.00092188      -0.00018602      -0.00248250        0        0       -1       58       26
Fe      -0.13829693       4.39064168      47.96090450      -0.00040757      -0.00174780      -0.00279142        0        0       -1       58       26
Fe       1.27657561       6.05335612      46.86012535       0.00007302      -0.00030431       0.00070623        0        0       -1       58       26
Fe      -0.13825178       7.17146816      48.52607962      -0.00002772      -0.00182224       0.00197765        0        0       -1       58       26
Fe       1.27672675       8.84699922      47.43347645      -0.00066635      -0.00102211       0.00099029        0        0       -1       58       26
Fe      -0.13816298       9.95935000      49.08469158      -0.00064088      -0.00140631       0.00196669        0        0       -1       58       26
Fe       1.27669409      11.61962748      47.96308208      -0.00003239      -0.00237687      -0.00066697        0        0       -1       58       26
Fe      -0.13826542      12.72883819      49.62639474      -0.00011266      -0.00041598      -0.00040795        0        0       -1       58       26
Fe       1.27665336      -0.04599971      48.50539066       0.00029616      -0.00212494       0.00030230        0        0       -1       58       26
Fe      -0.13833825       1.06683229      50.17711489      -0.00009274      -0.00214316      -0.00075310        0        0       -1       58       26
Fe       1.27664979       2.73128790      49.07178180       0.00002914      -0.00229724      -0.00301403        0        0       -1       58       26
Fe      -0.13836877       3.84356256      50.73783699      -0.00009438      -0.00245916      -0.00241769        0        0       -1       58       26
Fe       1.27676366       5.50579775      49.62886369      -0.00100655      -0.00223127      -0.00120529        0        0       -1       58       26
Fe      -0.13832840       6.62103992      51.29372624      -0.00038287      -0.00170852       0.00112018        0        0       -1       58       26
Fe       1.27662295       8.28805284      50.18814278      -0.00017126      -0.00153874       0.00204326        0        0       -1       58       26
Fe      -0.13844687       9.39995875      51.85132595       0.00030323      -0.00060166       0.00092404        0        0       -1       58       26
Fe       1.27661161      11.06776479      50.74397084      -0.00016591      -0.00047402       0.00092136        0        0       -1       58       26
Fe      -0.13850555      12.17627623      52.40651661       0.00064019      -0.00024207       0.00039502        0        0       -1       58       26
Fe       1.27666767      13.83799754      51.29216920      -0.00083436      -0.00048051       0.00009985        0        0       -1       58       26
Fe      -0.13851799       0.51842582      52.95774069       0.00077399      -0.00124383       0.00010425        0        0       -1       58       26
Fe       1.27661181       2.17971761      51.84531136       0.00006147      -0.00146037      -0.00002560        0        0       -1       58       26
Fe      -0.13835859       3.29240816      53.51161873      -0.00039601      -0.00062594      -0.00044549        0        0       -1       58       26
Fe       1.27649456       4.95688535      52.40283881       0.00102628      -0.00198148      -0.00105982        0        0       -1       58       26
Fe      -0.13844372       6.06886825      54.06800681       0.00005758      -0.00073572      -0.00091778        0        0       -1       58       26
Fe       1.27647864       7.73372781      52.95876833       0.00065839      -0.00189822       0.00050232        0        0       -1       58       26
Fe      -0.13849281       8.84482981      54.62403740      -0.00016603       0.00166739      -0.00014070        0        0       -1       58       26
Fe       1.27639964      10.51029171      53.51517860       0.00112992       0.00136633       0.00247060        0        0       -1       58       26
Fe      -0.13841216      11.62092433      55.17944494      -0.00132585       0.00127255       0.00103575        0        0       -1       58       26
Fe       1.27639527      13.28594686      54.07026281       0.00137756       0.00130324      -0.00011336        0        0       -1       58       26
Fe       1.27664467       1.62946969      54.62294258      -0.00048877       0.00205155       0.00059397        0        0       -1       58       26
Fe       1.27665820       4.40424838      55.17734104      -0.00054723      -0.00000166      -0.00246845        0        0       -1       58       26
Fe      -0.13846405      -0.03342155      55.73450146      -0.00060982       0.00064686       0.00018786        0        0       -1       58       26
Fe       1.27474114       7.10431707      41.46376569       0.00117587       0.00233436       0.00127272        0        0       -1       53       26
Fe       1.27469669      10.04554613      41.29621033       0.00068473       0.00170203       0.00187990        0        0       -1       63       26
Fe       1.27654572       7.18044373      55.73323320      -0.00006655       0.00039488      -0.00008982        0        0       -1       58       26
Fe       1.27411486      12.67890426      40.28855696      -0.00006706       0.00153211      -0.00276586        0        0       -1       52       26
Fe       2.68981387      14.32239438      41.44620425       0.00000074       0.00017194      -0.00350345        0        0       -1       53       26
Fe       1.27401080       1.19146939      39.99864922       0.00033436       0.00069860      -0.00219455        0        0       -1       58       26
Fe      15.42209123      28.22979740      17.17362661       0.00045666      -0.00103722       0.00078615       -1       -1        0       57       26
Fe       1.27348211       3.68862747      39.46212107       0.00118945      -0.00040928       0.00229543        0        0       -1       56       26
Fe       2.68885226       5.40743023      40.33583724       0.00011602       0.00206806      -0.00036089        0        0       -1       52       26
Fe       1.27371505       6.62841429      38.81655659      -0.00021965       0.00158458       0.00045791        0        0       -1       55       26
Fe       2.68931077       8.34542014      39.99281600      -0.00032145       0.00186052      -0.00089917        0        0       -1       58       26
Fe       1.27380333       9.36488846      38.29568292      -0.00000534       0.00061562      -0.00172212        0        0       -1       56       26
Fe       2.68904340      10.97552009      39.40377069      -0.00031435      -0.00107148      -0.00198402        0        0       -1       56       26
Fe       1.27351424      12.15043240      37.72897447       0.00008045      -0.00089536      -0.00115481        0        0       -1       57       26
Fe       2.68860476      13.89705109      38.78695339       0.00057602      -0.00152078      -0.00090606        0        0       -1       55       26
Fe       1.27308578       0.49826806      37.12187759       0.00071281      -0.00038213       0.00030688        0        0       -1       58       26
Fe       2.68825497       2.13695302      38.21416464       0.00081074       0.00254909      -0.00062655        0        0       -1       56       26
Fe       1.27282403       3.27479042      36.59800390       0.00089304       0.00117570       0.00260312        0        0       -1       58       26
Fe       2.68815860       4.90093385      37.75761333       0.00068569       0.00095707       0.00137692        0        0       -1       57       26
Fe       1.27302640       6.03245170      36.07748956       0.00012274      -0.00237507       0.00296369        0        0       -1       58       26
Fe       2.68844279       7.71393983      37.16715642       0.00002293      -0.00118825       0.00182600        0        0       -1       58       26
Fe       1.27321870       8.81674739      35.50555884      -0.00032758      -0.00125217      -0.00182003        0        0       -1       58       26
Fe       2.68843507      10.47931657      36.62432216       0.00022555      -0.00047570      -0.00008219        0        0       -1       58       26
Fe       1.27309210      11.58186018      34.94819101       0.00004210      -0.00079475       0.00178834        0        0       -1       58       26
Fe       2.68829141      13.24820284      36.04776153      -0.00050808      -0.00001928       0.00088920        0        0       -1       58       26
Fe       1.27283741      14.36068856      34.38003670      -0.00012008       0.00075313       0.00076773        0        0       -1       58       26
Fe       2.68778669       1.60927444      35.47205266       0.00066949       0.00026286       0.00017104        0        0       -1       58       26
Fe       1.27244503       2.71806905      33.82062753       0.00044063      -0.00053997       0.00048431        0        0       -1       58       26
Fe       2.68768806       4.38212654      34.94219239       0.00055484      -0.00157250       0.00160191        0        0       -1       58       26
Fe       1.27257401       5.48758700      33.27947015      -0.00051059      -0.00106612       0.00081240        0        0       -1       58       26
Fe       2.68794193       7.14566353      34.40188269      -0.00076719      -0.00282807       0.00201769        0        0       -1       58       26
Fe       1.27259823       8.25360696      32.72979785      -0.00073120      -0.00188958       0.00170982        0        0       -1       58       26
Fe       2.68794840       9.91951814      33.83744502      -0.00061468      -0.00031788       0.00105477        0        0       -1       58       26
Fe       1.27252447      11.02689136      32.17008287      -0.00064187       0.00013624       0.00086971        0        0       -1       58       26
Fe       2.68787174      12.69161130      33.27899179      -0.00128486       0.00051703      -0.00053768        0        0       -1       58       26
Fe       1.27220006      13.80324308      31.61344774       0.00043631      -0.00113722      -0.00057179        0        0       -1       58       26
Fe       2.68740679       1.04329479      32.71782846      -0.00008027      -0.00006652       0.00076965        0        0       -1       58       26
Fe       1.27188393       2.15210881      31.05506383       0.00134877      -0.00003532      -0.00137758        0        0       -1       58       26
Fe       2.68722607       3.82312076      32.16191144      -0.00012149      -0.00013237      -0.00001823        0        0       -1       58       26
Fe       1.27187615       4.92791396      30.49943919       0.00097668      -0.00203429      -0.00003141        0        0       -1       58       26
Fe       2.68720349       6.59252791      31.61361732       0.00030631      -0.00228231       0.00139682        0        0       -1       58       26
Fe       1.27191720       7.69861312      29.94768895       0.00062991      -0.00095845       0.00102940        0        0       -1       58       26
Fe       2.68722432       9.36183213      31.06096093       0.00047430      -0.00109157       0.00065186        0        0       -1       58       26
Fe       1.27193219      10.47066456      29.39435690       0.00025136      -0.00025618       0.00206773        0        0       -1       58       26
Fe       2.68714971      12.13664275      30.50449379      -0.00015453      -0.00157096       0.00030684        0        0       -1       58       26
Fe       1.27179772      13.24552251      28.83913455       0.00032451      -0.00161419       0.00030854        0        0       -1       58       26
Fe       2.68698214       0.48246926      29.94836417      -0.00060635       0.00001091      -0.00081902        0        0       -1       58       26
Fe       1.27174086       1.59028047      28.28294558      -0.00021351      -0.00011396      -0.00136391        0        0       -1       58       26
Fe       2.68670475       3.25885215      29.39089336       0.00048272      -0.00026365       0.00036943        0        0       -1       58       26
Fe       2.68671262       6.03314516      28.83541105       0.00055918      -0.00066594       0.00059206        0        0       -1       58       26
Fe       2.68685785       8.80579680      28.28231083      -0.00034944      -0.00145833       0.00058448        0        0       -1       58       26
Fe      16.83721617      26.50032014      16.11327756       0.00053570       0.00000613      -0.00071000       -1       -1        0       55       26
Fe      15.42211432      25.42834869      17.75857516       0.00043299       0.00150881      -0.00237470       -1       -1        0       58       26
Fe       1.27266628      13.29083973      14.60665270       0.00020084      -0.00020073      -0.00067221        0        0        0       52       26
Fe      16.83725803      23.79573713      16.61275059       0.00025706       0.00087013      -0.00047286       -1       -1        0       56       26
Fe       1.27290982      10.38425144      14.90653609      -0.00000276      -0.00190736      -0.00046658        0        0        0       58       26
Fe      15.42193530      22.67497226      18.28324109       0.00057584       0.00088736       0.00046371       -1       -1        0       58       26
Fe       1.27253274       7.76784599      15.49862668      -0.00022944      -0.00079075       0.00037323        0        0        0       56       26
Fe       2.68757302       6.07537754      14.60771225       0.00033630       0.00067514      -0.00207983        0        0        0       52       26
Fe       1.27203594       4.85474502      16.11404737       0.00142369      -0.00040052      -0.00124240        0        0        0       55       26
Fe       2.68757335       3.16893255      14.90703081       0.00035926      -0.00073816      -0.00142823        0        0        0       58       26
Fe       1.27199732       2.15033789      16.61321367       0.00047251       0.00074740      -0.00108098        0        0        0       56       26
Fe       2.68719510       0.55297762      15.49881772       0.00051396      -0.00234330      -0.00112748        0        0        0       56       26
Fe       1.27164600      13.79964423      17.17358409       0.00166530      -0.00152502       0.00104412        0        0        0       57       26
Fe       2.68697782      12.07000781      16.11363840       0.00131722       0.00056242      -0.00151845        0        0        0       55       26
Fe       1.27177125      10.99809780      17.75867390       0.00068687       0.00106892      -0.00325494        0        0        0       58       26
Fe       2.68722883       9.36551259      16.61291917      -0.00042755       0.00112359      -0.00056190        0        0        0       56       26
Fe       1.27170127       8.24474997      18.28336594       0.00158130       0.00082496      -0.00086849        0        0        0       58       26
Fe       2.68683564       6.58443440      17.17400248       0.00114447      -0.00091930      -0.00021786        0        0        0       57       26
Fe       1.27170365       5.46665780      18.84389270       0.00058255       0.00214884       0.00011193        0        0        0       58       26
Fe       2.68685996       3.78294802      17.75896932       0.00007467       0.00074974      -0.00246718        0        0        0       58       26
Fe       1.27174531       2.68203198      19.41289035       0.00009487       0.00113802      -0.00119122        0        0        0       58       26
Fe       2.68676854       1.02952383      18.28341773       0.00003531       0.00082626       0.00005671        0        0        0       58       26
Fe       1.27165573      14.34642377      19.95256411       0.00047807       0.00254067      -0.00090387        0        0        0       58       26
Fe       2.68658614      12.68179587      18.84364463       0.00061856       0.00183602       0.00049286        0        0        0       58       26
Fe       1.27179477      11.57080114      20.51228113      -0.00087828       0.00317463       0.00064196        0        0        0       58       26
Fe       2.68674400       9.89732946      19.41263024      -0.00012056       0.00099186      -0.00102900        0        0        0       58       26
Fe       1.27180365       8.79134008      21.07158891      -0.00027161       0.00316804      -0.00070160        0        0        0       58       26
Fe       2.68686631       7.13155935      19.95240055      -0.00057481       0.00148017      -0.00090012        0        0        0       58       26
Fe       1.27180960       6.02172161      21.62001026      -0.00065708       0.00130607      -0.00103698        0        0        0       58       26
Fe       2.68687407       4.35569594      20.51210366      -0.00065348       0.00272525       0.00190955        0        0        0       58       26
Fe       1.27181138       3.24574307      22.17758434      -0.00043620       0.00122251       0.00198852        0        0        0       58       26
Fe       2.68672884       1.57613696      21.07154818      -0.00013944       0.00193802       0.00058680        0        0        0       58       26
Fe       1.27166797       0.46975958      22.73444178       0.00014292       0.00146064      -0.00028177        0        0        0       58       26
Fe       2.68662746      13.23684450      21.62013820       0.00013446       0.00156025      -0.00087591        0        0        0       58       26
Fe       1.27152703      12.12800407      23.28621949       0.00095130       0.00087619       0.00119442        0        0        0       58       26
Fe       2.68673129      10.46111341      22.17764446      -0.00015685       0.00237880      -0.00009892        0        0        0       58       26
Fe       1.27172702       9.35314005      23.84227697      -0.00062109       0.00130347       0.00048125        0        0        0       58       26
Fe       2.68676651       7.68505517      22.73396740       0.00031460       0.00221849      -0.00051039        0        0        0       58       26
Fe       1.27175057       6.57812425      24.39764404      -0.00063030       0.00195348      -0.00066745        0        0        0       58       26
Fe       2.68670784       4.91273454      23.28604435       0.00061005       0.00075555       0.00042806        0        0        0       58       26
Fe       1.27172212       3.80461218      24.95151101      -0.00053012       0.00253006       0.00125023        0        0        0       58       26
Fe       2.68673228       2.13750828      23.84290344      -0.00061181       0.00140594      -0.00070908        0        0        0       58       26
Fe       1.27164719       1.03011756      25.50804767       0.00001956      -0.00016508       0.00130078        0        0        0       58       26
Fe       2.68660056      13.79291767      24.39857383       0.00006832       0.00243618       0.00034833        0        0        0       58       26
Fe       1.27170018      12.68600628      26.06351243      -0.00040691       0.00110968       0.00008534        0        0        0       58       26
Fe       2.68664284      11.02008621      24.95175922       0.00028221       0.00218367       0.00136516        0        0        0       58       26
Fe       1.27166699       9.91312866      26.61718384       0.00039969      -0.00192328       0.00051582        0        0        0       58       26
Fe       2.68666113       8.24594296      25.50664407       0.00050646       0.00143491       0.00213534        0        0        0       58       26
Fe       1.27166477       7.13955427      27.17127718       0.00062390      -0.00098307      -0.00043151        0        0        0       58       26
Fe       2.68662351       5.47136169      26.06197802       0.00041789       0.00240136      -0.00145904        0        0        0       58       26
Fe       2.68647081       2.69762625      26.61724693       0.00127323      -0.00152983      -0.00002696        0        0        0       58       26
Fe       2.68652199      14.35327276      27.17353268       0.00140694      -0.00176460       0.00024999        0        0        0       58       26
Fe       1.27166368       4.36513082      27.72649149       0.00026408       0.00047347      -0.00090659        0        0        0       58       26
Fe      16.83686771      21.01467120      17.17378285       0.00126950      -0.00072873       0.00106553       -1       -1        0       57       26
Fe      15.42185405      19.89693472      18.84387681       0.00047665       0.00201979       0.00022316       -1       -1        0       58       26
Fe       2.68671210      11.57903558      27.72868878       0.00049795      -0.00221204       0.00194779        0        0        0       58       26
Fe      -0.14047004       6.13404992      12.31927750      -0.00016049      -0.00231481      -0.00264132        0        0        0       52       26
Fe       1.27365696       4.43882077      13.44030301      -0.00099460      -0.00203878      -0.00224635        0        0        0       53       26
Fe      -0.14075258       3.16012754      11.99271869      -0.00011413      -0.00177141      -0.00114887        0        0        0       58       26
Fe       1.27315943       1.49579906      13.59960927       0.00067414      -0.00094533       0.00080137        0        0        0       63       26
Fe      -0.14029928       0.64754179      11.45852882      -0.00003669       0.00063585       0.00009024        0        0        0       56       26
Fe       1.27469032      13.34789242      12.31791270      -0.00015913      -0.00082162      -0.00132536        0        0        0       52       26
Fe      -0.13995009      12.12521819      10.80700841      -0.00059942      -0.00043070       0.00020581        0        0        0       55       26
Fe       1.27448193      10.37488613      11.99193251      -0.00059925      -0.00327292      -0.00152090        0        0        0       58       26
Fe      -0.13999770       9.42518008      10.21753124       0.00046583      -0.00173121      -0.00138036        0        0        0       56       26
Fe       1.27487289       7.86375123      11.45883762      -0.00029470      -0.00068812      -0.00062132        0        0        0       56       26
Fe      -0.13975757       6.65475380       9.75555199      -0.00001757      -0.00138200      -0.00207671        0        0        0       57       26
Fe       1.27504847       4.91134297      10.80850057      -0.00046893      -0.00246618      -0.00238060        0        0        0       55       26
Fe      -0.13964114       3.86182873       9.14151392      -0.00034276      -0.00004989      -0.00183979        0        0        0       58       26
Fe       1.27508313       2.21002269      10.21898240      -0.00050246      -0.00139033      -0.00254942        0        0        0       56       26
Fe      -0.13953886       1.07346494       8.60184818      -0.00029344      -0.00182805      -0.00106126        0        0        0       58       26
Fe       1.27539289      13.86905705       9.75481123      -0.00048708      -0.00077977      -0.00065488        0        0        0       57       26
Fe      -0.13940306      12.75296124       8.06417118      -0.00051783      -0.00034880      -0.00023999        0        0        0       58       26
Fe       1.27554761      11.07637661       9.13980780      -0.00096907      -0.00023297      -0.00020050        0        0        0       58       26
Fe      -0.13936932       9.95918101       7.48383071       0.00015625      -0.00020316      -0.00072947        0        0        0       58       26
Fe       1.27556436       8.28822662       8.60081898      -0.00059805      -0.00038373       0.00085121        0        0        0       58       26
Fe      -0.13920525       7.18690575       6.93827564      -0.00055866      -0.00078132       0.00086992        0        0        0       58       26
Fe       1.27546960       5.53835460       8.06477435      -0.00028005      -0.00035604       0.00032949        0        0        0       58       26
Fe      -0.13918386       4.41898767       6.39034891       0.00044738      -0.00129866       0.00037100        0        0        0       58       26
Fe       1.27551407       2.74471039       7.48511037      -0.00016296      -0.00004382      -0.00190201        0        0        0       58       26
Fe      -0.13893491       1.63511576       5.82532405      -0.00069966      -0.00113256      -0.00009928        0        0        0       58       26
Fe       1.27553998      -0.02823116       6.93876097       0.00061462       0.00050658       0.00050406        0        0        0       58       26
Fe      -0.13896780      13.29194292       5.27441601       0.00002155      -0.00039765       0.00020453        0        0        0       58       26
Fe       1.27570536      11.63342289       6.38951302       0.00060297       0.00006011       0.00124432        0        0        0       58       26
Fe      -0.13886058      10.51812766       4.72057146      -0.00033915       0.00029415       0.00293522        0        0        0       58       26
Fe       1.27590768       8.84958139       5.82396946      -0.00013391      -0.00142085       0.00086327        0        0        0       58       26
Fe      -0.13887744       7.73903376       4.16080382       0.00058950       0.00028978       0.00182814        0        0        0       58       26
Fe       1.27589141       6.07687263       5.27403509       0.00026300      -0.00119899      -0.00014761        0        0        0       58       26
Fe      -0.13862251       4.96486372       3.60910158      -0.00094028       0.00026075      -0.00026939        0        0        0       58       26
Fe       1.27608223       3.30347033       4.72140058      -0.00054082      -0.00033268       0.00152645        0        0        0       58       26
Fe      -0.13857830       2.19000905       3.05490959      -0.00055199       0.00189499       0.00112794        0        0        0       58       26
Fe       1.27618462       0.52457549       4.16223855      -0.00072853      -0.00142976       0.00024547        0        0        0       58       26
Fe      -0.13865875      13.84312348       2.49832201       0.00022005       0.00244298       0.00110440        0        0        0       58       26