11808
Lattice="16.98 0.0 0.0 0.0 63.28072376 0.0 0.0 0.0 124.98357107" Properties=species:S:1:pos:R:3:force:R:3:map_shift:I:3:n_neighb:I:1:Z:I:1 virial="-89.21424848 0.01877451 -0.02316649 0.01877451 -250.43594153 -6.46290019 -0.02316649 -6.46290019 -0.46024821" cutoff=5.3 adsorbate_info=T nneightol=1.2 energy=-47248.09927614 pbc="T T T"
Fe      15.15216622      40.36528409      23.05340332      -0.00206756       0.00012814       0.00069749       -1       -1        0       58       26 
Fe      -0.42438663       2.60229985      94.11233011      -0.00061474      -0.00099296      -0.00276447        0        0       -1       54       26 
Fe      13.73749398      39.22001274      21.42200057      -0.00167926       0.00051923      -0.00153224       -1       -1        0       58       26 
Fe       0.98913089       9.67032752      94.30298814       0.00047396       0.00437926       0.00537127        0        0       -1       50       26 
Fe      15.15234749      37.56677515      22.56627997      -0.00169630      -0.00029027      -0.00072366       -1       -1        0       58       26 
Fe      -0.42226265      11.20317464      95.50126104       0.00099364      -0.00443844      -0.00217056        0        0       -1       53       26 
Fe       0.99056865      12.63595104      94.13393445      -0.00018831      -0.00097878      -0.00131353        0        0       -1       56       26 
Fe      -0.42102779      13.97868835      95.62646415      -0.00113612       0.00256894       0.00267335        0        0       -1       60       26 
Fe      13.73756210      36.43452668      20.93020900      -0.00097414      -0.00029858       0.00026214       -1       -1        0       58       26 
Fe      -0.41811527      16.60897253      96.22200296      -0.00170713      -0.00187401      -0.00207539        0        0       -1       56       26 
Fe       0.99707069      18.28418360      95.29906655      -0.00025853      -0.00003762       0.00161538        0        0       -1       52       26 
Fe      -0.41590052      19.52540786      96.80237920      -0.00081309       0.00137152      -0.00050710        0        0       -1       55       26 
Fe       1.01220552      21.20425867      95.57646743      -0.00194606       0.00267150       0.00036769        0        0       -1       58       26 
Fe      -0.41456362      22.22705524      97.28831180       0.00018586       0.00000892       0.00197330        0        0       -1       56       26 
Fe       1.01819808      23.78505330      96.14320177      -0.00074928      -0.00030303      -0.00140595        0        0       -1       56       26 
Fe      -0.40922529      25.01415675      97.82419353      -0.00078343      -0.00051604      -0.00134587        0        0       -1       57       26 
Fe       1.00610508      26.72150599      96.76039926      -0.00080587      -0.00008334      -0.00219211        0        0       -1       56       26 
Fe      -0.41167163      27.83148382      98.39493845       0.00054464      -0.00002839      -0.00109864        0        0       -1       58       26 
Fe       0.99990635      29.44300521      97.25004520      -0.00225163       0.00036300       0.00019512        0        0       -1       57       26 
Fe      -0.41414282      30.63566713      98.87334611      -0.00186244      -0.00066314       0.00084095        0        0       -1       58       26 
Fe       0.99435654       1.04508137      95.28460620       0.00120116      -0.00116611       0.00054917        0        0       -1       53       26 
Fe      -0.41881266       2.37348224      96.69532689       0.00056163      -0.00081657      -0.00027685        0        0       -1       56       26 
Fe       0.99318303       4.01170118      95.47882524      -0.00100401      -0.00185672      -0.00216048        0        0       -1       56       26 
Fe      -0.41904471       5.29811340      96.95638365      -0.00101548      -0.00030090      -0.00039898        0        0       -1       58       26 
Fe       0.99237769       6.99330637      95.31193331      -0.00098067      -0.00079947       0.00002885        0        0       -1       59       26 
Fe      -0.41772219       7.77315280      97.50012368       0.00026471      -0.00317861      -0.00145127        0        0       -1       56       26 
Fe       0.99640728       9.48170865      96.60080634      -0.00092931       0.00132336      -0.00565245        0        0       -1       53       26 
Fe      -0.41710989      10.69109154      98.13282158      -0.00047192       0.00282682       0.00174736        0        0       -1       56       26 
Fe       0.99561179      12.38894311      96.98405433       0.00049733       0.00306309       0.00526250        0        0       -1       56       26 
Fe      -0.41704606      13.47153427      98.59717600      -0.00002873      -0.00212231      -0.00299352        0        0       -1       58       26 
Fe       0.99705024      15.03225734      97.35739030      -0.00137432      -0.00047687       0.00082182        0        0       -1       56       26 
Fe      -0.41674929      16.18331825      99.03461485      -0.00046159       0.00438386       0.00108690        0        0       -1       58       26 
Fe       0.99748382      17.81755288      97.89601320      -0.00024677       0.00082480      -0.00229091        0        0       -1       57       26 
Fe      -0.41909297      18.95722562      99.56436093      -0.00095623       0.00115231      -0.00240330        0        0       -1       58       26 
Fe       0.99182525      20.60902193      98.45602870      -0.00010905       0.00118841      -0.00014809        0        0       -1       58       26 
Fe      -0.41809042      21.74734755     100.09872495       0.00112801       0.00113954       0.00045399        0        0       -1       58       26 
Fe       0.99410040      23.37989071      98.95798012      -0.00013491       0.00048482      -0.00016134        0        0       -1       58       26 
Fe      -0.41691699      24.52845273     100.60906103       0.00025770       0.00024737      -0.00009934        0        0       -1       58       26 
Fe       1.00212349      26.16783265      99.48485447       0.00066293      -0.00056081      -0.00182831        0        0       -1       58       26 
Fe      -0.41324599      27.33221889     101.12735015       0.00002758      -0.00205005      -0.00062314        0        0       -1       58       26 
Fe       1.00218111      28.99190682     100.01365898      -0.00096313      -0.00028297      -0.00186624        0        0       -1       58       26 
Fe      -0.41231127      30.15103835     101.63629944      -0.00232084      -0.00171376      -0.00037849        0        0       -1       58       26 
Fe       0.99851499       0.65034800      97.76333916       0.00010861      -0.00007203       0.00183849        0        0       -1       57       26 
Fe      -0.41457065       1.84600933      99.35687086      -0.00093042      -0.00065627       0.00025061        0        0       -1       59       26 
Fe       0.99881100       3.56610388      98.22033665      -0.00144701      -0.00252526      -0.00011950        0        0       -1       56       26 
Fe      -0.41427791       4.60919010      99.88161619      -0.00274067      -0.00111355       0.00010209        0        0       -1       56       26 
Fe       0.99876266       6.22758454      98.76397755       0.00034674      -0.00028220      -0.00515980        0        0       -1       56       26 
Fe      -0.41433855       7.38025354     100.37519421      -0.00000312      -0.00009719      -0.00413381        0        0       -1       58       26 
Fe       0.99957608       8.98677689      99.19948120      -0.00118822      -0.00193300      -0.00098496        0        0       -1       57       26 
Fe      -0.41391199      10.14808846     100.85962505      -0.00178871      -0.00402786      -0.00262629        0        0       -1       58       26 
Fe       0.99948171      11.81838066      99.75085872      -0.00012474      -0.00239653      -0.00303382        0        0       -1       58       26 
Fe      -0.41405829      12.94234677     101.38714043      -0.00064400       0.00230295       0.00120230        0        0       -1       58       26 
Fe       0.99949968      14.58272551     100.23239386      -0.00129850       0.00467861       0.00302648        0        0       -1       58       26 
Fe      -0.41445849      15.70776897     101.87549457      -0.00189638      -0.00000464      -0.00230588        0        0       -1       58       26 
Fe       0.99838638      17.32339002     100.70440967      -0.00115387       0.00099321      -0.00135184        0        0       -1       58       26 
Fe      -0.41540817      18.46605765     102.36305287      -0.00117449       0.00232915       0.00144323        0        0       -1       58       26 
Fe       0.99730196      20.10004514     101.22529143       0.00123655       0.00099499      -0.00054723        0        0       -1       58       26 
Fe      -0.41560311      21.24768825     102.87609639      -0.00147722       0.00132935       0.00173545        0        0       -1       58       26 
Fe       0.99792277      22.89046590     101.74647911      -0.00004988       0.00096111       0.00060744        0        0       -1       58       26 
Fe      -0.41542750      24.04062291     103.38832835      -0.00034532       0.00043881       0.00133664        0        0       -1       58       26 
Fe       0.99945280      25.68414939     102.25460515       0.00160381      -0.00190009       0.00062228        0        0       -1       58       26 
Fe      -0.41402961      26.83780756     103.89550105       0.00015353      -0.00245250      -0.00053576        0        0       -1       58       26 
Fe       1.00190760      28.49031548     102.76457754      -0.00241102      -0.00222592      -0.00064785        0        0       -1       58       26 
Fe      -0.41255628      29.63330793     104.40741068      -0.00036672      -0.00203804      -0.00100677        0        0       -1       58       26 
Fe       1.00280988      31.28827658     103.27625579      -0.00097803      -0.00150725      -0.00114406        0        0       -1       58       26 
Fe       1.00154126       0.16957446     100.49465099      -0.00045104      -0.00189537       0.00181850        0        0       -1       59       26 
Fe      -0.41220484       1.30090155     102.14033930      -0.00149819      -0.00142785      -0.00024064        0        0       -1       58       26 
Fe       1.00200940       2.95624812     101.00960957      -0.00254128       0.00128038      -0.00068810        0        0       -1       58       26 
Fe      -0.41185344       4.08502888     102.65688901      -0.00219001       0.00039736      -0.00051695        0        0       -1       58       26 
Fe       1.00208398       5.73748560     101.52664130      -0.00167276      -0.00135727      -0.00198423        0        0       -1       58       26 
Fe      -0.41189707       6.87243869     103.16397852      -0.00150651      -0.00197356      -0.00083511        0        0       -1       58       26 
Fe       1.00219203       8.51521673     102.01607125      -0.00162643      -0.00235244      -0.00150780        0        0       -1       58       26 
Fe      -0.41186071       9.64875367     103.66132041      -0.00133949      -0.00213752      -0.00072570        0        0       -1       58       26 
Fe       1.00216786      11.28797228     102.51495820      -0.00024051      -0.00076892      -0.00181759        0        0       -1       58       26 
Fe      -0.41177288      12.42476880     104.16512846      -0.00198479      -0.00147184      -0.00193913        0        0       -1       58       26 
Fe       1.00238956      14.07158626     103.02875104      -0.00254486      -0.00169739      -0.00267843        0        0       -1       58       26 
Fe      -0.41180611      15.20554702     104.67144244      -0.00367845      -0.00342094       0.00203088        0        0       -1       58       26 
Fe       1.00170904      16.84079014     103.52116561      -0.00173718      -0.00083069       0.00231649        0        0       -1       58       26 
Fe      -0.41283373      17.97931348     105.16715036      -0.00126496      -0.00132010      -0.00168565        0        0       -1       58       26 
Fe       1.00111215      19.61042745     104.01570675      -0.00259575       0.00147816       0.00248211        0        0       -1       58       26 
Fe      -0.41362000      20.75723717     105.66343029      -0.00212167       0.00025829       0.00234187        0        0       -1       58       26 
Fe       1.00045055      22.39668502     104.52310237      -0.00008645       0.00022092       0.00121904        0        0       -1       58       26 
Fe      -0.41418014      23.54484841     106.16779164      -0.00100454      -0.00065411       0.00366345        0        0       -1       58       26 
Fe       1.00090132      25.19030394     105.03079237      -0.00153369      -0.00249349       0.00365025        0        0       -1       58       26 
Fe      -0.41375095      26.33396166     106.67632851      -0.00132789       0.00002744       0.00099972        0        0       -1       58       26 
Fe       1.00203405      27.98199308     105.54066848      -0.00243259      -0.00121486      -0.00005984        0        0       -1       58       26 
Fe      -0.41280215      29.12185388     107.18766371      -0.00200734      -0.00157560      -0.00071041        0        0       -1       58       26 
Fe       1.00286597      30.77099768     106.05353009      -0.00097198       0.00028561      -0.00137235        0        0       -1       58       26 
Fe      -0.41145091       0.78206728     104.92074639      -0.00229126       0.00036587       0.00049838        0        0       -1       58       26 
Fe       1.00375655       2.43324698     103.78779460      -0.00364280      -0.00041811      -0.00020935        0        0       -1       58       26 
Fe      -0.41098733       3.56971003     105.43216454      -0.00275503      -0.00133006       0.00040176        0        0       -1       58       26 
Fe       1.00356749       5.22123496     104.29937861      -0.00051206      -0.00043875       0.00162063        0        0       -1       58       26 
Fe      -0.41115454       6.35606612     105.94284420      -0.00129639       0.00027011       0.00076269        0        0       -1       58       26 
Fe       1.00380162       8.00523708     104.80584455      -0.00247176      -0.00093250      -0.00005546        0        0       -1       58       26 
Fe      -0.41105983       9.13883068     106.44935182      -0.00229155       0.00059131       0.00323301        0        0       -1       58       26 
Fe       1.00373831      10.78304120     105.30787371      -0.00181049      -0.00135282      -0.00144926        0        0       -1       58       26 
Fe      -0.41134638      11.91879033     106.95358508      -0.00037537      -0.00032149      -0.00134910        0        0       -1       58       26 
Fe       1.00376176      13.56195078     105.81205982      -0.00238188      -0.00241879      -0.00069929        0        0       -1       58       26 
Fe      -0.41142692      14.69993918     107.45722664      -0.00257330      -0.00280569      -0.00020306        0        0       -1       58       26 
Fe       1.00342862      16.34228621     106.31522800      -0.00383066      -0.00222438      -0.00140579        0        0       -1       58       26 
Fe      -0.41243080      17.48212670     107.95809623      -0.00300302      -0.00271081      -0.00098004        0        0       -1       58       26 
Fe       1.00205809      19.12109993     106.81132001      -0.00180300      -0.00181196       0.00052949        0        0       -1       58       26 
Fe      -0.41411290      20.26353534     108.45526647      -0.00013628      -0.00279431       0.00150674        0        0       -1       58       26 
Fe       1.00097193      21.90285634     107.30947831      -0.00097526      -0.00019876       0.00153290        0        0       -1       58       26 
Fe      -0.41497975      23.04537189     108.95621306       0.00059346      -0.00330386      -0.00134972        0        0       -1       58       26 
Fe       1.00064234      24.68826471     107.81441558      -0.00024806      -0.00168972       0.00093541        0        0       -1       58       26 
Fe      -0.41483100      25.82860522     109.46193733       0.00043432       0.00025878       0.00046756        0        0       -1       58       26 
Fe       1.00103551      27.47452872     108.32380236       0.00068857      -0.00209189       0.00034340        0        0       -1       58       26 
Fe      -0.41422559      28.61357188     109.97164728       0.00211628       0.00064680      -0.00138685        0        0       -1       58       26 
Fe       1.00201693      30.26066769     108.83494443      -0.00063560      -0.00133746      -0.00033888        0        0       -1       58       26 
Fe      -0.41313828      31.39877712     110.48204042       0.00142185       0.00061943      -0.00135556        0        0       -1       58       26 
Fe      -0.41208347       0.26844106     107.69884798      -0.00128013      -0.00004741       0.00246175        0        0       -1       58       26 
Fe       1.00360193       1.91868041     106.56503503      -0.00160174      -0.00055396       0.00295105        0        0       -1       58       26 
Fe      -0.41177856       3.05483511     108.20982743       0.00066164       0.00142909       0.00441080        0        0       -1       58       26 
Fe       1.00380312       4.70561603     107.07678820      -0.00126591       0.00012405       0.00144068        0        0       -1       58       26 
Fe      -0.41149149       5.84143453     108.72169567       0.00014114       0.00069309       0.00124179        0        0       -1       58       26 
Fe       1.00360715       7.49134024     107.58714926       0.00045237      -0.00138117       0.00084751        0        0       -1       58       26 
Fe      -0.41170242       8.62732311     109.23166956       0.00113396      -0.00227662       0.00063553        0        0       -1       58       26 
Fe       1.00352304      10.27434087     108.09402453      -0.00020034      -0.00086824       0.00048004        0        0       -1       58       26 
Fe      -0.41196676      11.41101915     109.73872054       0.00054848       0.00054849      -0.00260425        0        0       -1       58       26 
Fe       1.00343833      13.05606657     108.59822190      -0.00198743       0.00044181       0.00168679        0        0       -1       58       26 
Fe      -0.41256015      14.19517443     110.24224808      -0.00116722      -0.00089283      -0.00159920        0        0       -1       58       26 
Fe       1.00244930      15.83924765     109.10089875      -0.00079787      -0.00166056      -0.00087554        0        0       -1       58       26 
Fe      -0.41425808      16.97912879     110.74392131       0.00113529      -0.00149460       0.00095446        0        0       -1       58       26 
Fe       1.00086106      18.62240901     109.60069374      -0.00009591      -0.00237822       0.00147517        0        0       -1       58       26 
Fe      -0.41591880      19.76110175     111.24495097       0.00240795      -0.00127604      -0.00086017        0        0       -1       58       26 
Fe       0.99949509      21.40340632     110.10054100       0.00087778      -0.00121623      -0.00144846        0        0       -1       58       26 
Fe      16.56329107      22.54187892     111.74637257       0.00330644       0.00021882       0.00030478       -1        0       -1       58       26 
Fe       0.99920396      24.18471905     110.60336967       0.00153554       0.00028129      -0.00159630        0        0       -1       58       26 
Fe      -0.41599687      25.32369847     112.25006813       0.00194194       0.00024876       0.00032305        0        0       -1       58       26 
Fe       0.99999101      26.96782090     111.10962179       0.00116690       0.00081311       0.00078041        0        0       -1       58       26 
Fe      -0.41445653      28.10693183     112.75721518      -0.00077236       0.00026475      -0.00036351        0        0       -1       58       26 
Fe       1.00110151      29.75237576     111.61927786       0.00128528       0.00059362      -0.00179779        0        0       -1       58       26 
Fe      -0.41318871      30.89150767     113.26622806      -0.00104599      -0.00001170       0.00012210        0        0       -1       58       26 
Fe       1.00263888       1.40554854     109.34484271       0.00062678       0.00230922       0.00323077        0        0       -1       58       26 
Fe      -0.41212507       2.54296381     110.99096824       0.00011332       0.00374710       0.00259149        0        0       -1       58       26 
Fe       1.00324851       4.19119766     109.85536811      -0.00007530       0.00390206       0.00296329        0        0       -1       58       26 
Fe      -0.41165581       5.32842394     111.50086513       0.00026770       0.00518883       0.00272515        0        0       -1       58       26 
Fe       1.00351240       6.97805774     110.36671551      -0.00081954       0.00147233       0.00127752        0        0       -1       58       26 
Fe      -0.41153499       8.11574208     112.01182642      -0.00041292       0.00173377      -0.00150910        0        0       -1       58       26 
Fe       1.00313628       9.76396890     110.87637395       0.00062902       0.00179537      -0.00249289        0        0       -1       58       26 
Fe      -0.41199618      10.90305648     112.51982095      -0.00049923       0.00152041      -0.00110940        0        0       -1       58       26 
Fe       1.00232395      12.54989407     111.38204464       0.00176702      -0.00045747      -0.00195842        0        0       -1       58       26 
Fe      -0.41338614      13.68924746     113.02526053       0.00155975       0.00036115       0.00044962        0        0       -1       58       26 
Fe       1.00102380      15.33481704     111.88570464       0.00126562      -0.00151922      -0.00198516        0        0       -1       58       26 
Fe      -0.41513889      16.47305018     113.52996190       0.00299931      -0.00158192      -0.00276166        0        0       -1       58       26 
Fe       0.99921731      18.11754569     112.38802011       0.00284618      -0.00219518      -0.00149124        0        0       -1       58       26 
Fe      -0.41649903      19.25472710     114.03277993       0.00365764       0.00260297      -0.00154961        0        0       -1       58       26 
Fe       0.99790388      20.89865534     112.88985836       0.00508082       0.00089232      -0.00033158        0        0       -1       58       26 
Fe      -0.41685018      22.03685857     114.53481059       0.00446368       0.00046223      -0.00138667        0        0       -1       58       26 
Fe       0.99814207      23.68026029     113.39232085       0.00400215       0.00096600      -0.00129550        0        0       -1       58       26 
Fe      -0.41599173      24.81914317     115.03808417       0.00403646      -0.00029708       0.00033430        0        0       -1       58       26 
Fe       0.99962969      26.46244186     113.89670740       0.00108357       0.00244177       0.00148796        0        0       -1       58       26 
Fe      -0.41456255      27.60146153     115.54358939       0.00174151       0.00164699       0.00026096        0        0       -1       58       26 
Fe       1.00109230      29.24612234     114.40434650      -0.00005739       0.00036961       0.00015207        0        0       -1       58       26 
Fe      -0.41349772      30.38527366     116.05131679      -0.00002533       0.00056659      -0.00166547        0        0       -1       58       26 
Fe       1.00241882       0.89707547     112.12874102      -0.00045718      -0.00012519       0.00030547        0        0       -1       58       26 
Fe      -0.41210713       2.03597013     113.77545775      -0.00120764      -0.00038143      -0.00029824        0        0       -1       58       26 
Fe       1.00327784       3.68118373     112.63725284      -0.00042164       0.00398086       0.00080562        0        0       -1       58       26 
Fe      -0.41121737       4.82074163     114.28278689      -0.00272049       0.00310395       0.00212359        0        0       -1       58       26 
Fe       1.00346408       6.46727586     113.14610844       0.00127413       0.00356246       0.00197107        0        0       -1       58       26 
Fe      -0.41112786       7.60784148     114.79060884      -0.00181314       0.00173164       0.00286669        0        0       -1       58       26 
Fe       1.00352634       9.25563265     113.65578805      -0.00094475       0.00017355      -0.00083751        0        0       -1       58       26 
Fe      -0.41171536      10.39606680     115.29948480      -0.00039515      -0.00260021       0.00315098        0        0       -1       58       26 
Fe       1.00275580      12.04309805     114.16313443      -0.00165282      -0.00041023       0.00242971        0        0       -1       58       26 
Fe      -0.41270485      13.18164041     115.80837944      -0.00034731      -0.00056178      -0.00024651        0        0       -1       58       26 
Fe       1.00109510      14.82745997     114.66972707       0.00095362       0.00130423       0.00054357        0        0       -1       58       26 
Fe      -0.41392520      15.96569201     116.31486306       0.00052046      -0.00055404       0.00014791        0        0       -1       58       26 
Fe       0.99954739      17.61040964     115.17441935       0.00325197       0.00193597      -0.00031146        0        0       -1       58       26 
Fe      -0.41468408      18.74884806     116.81871023       0.00213547      -0.00022930       0.00024883        0        0       -1       58       26 
Fe       0.99906815      20.39311763     115.67692946       0.00311820      -0.00049814       0.00021240        0        0       -1       58       26 
Fe      -0.41422680      21.53146940     117.32138060       0.00105090      -0.00029229       0.00137182        0        0       -1       58       26 
Fe       0.99961664      23.17536865     116.17944644       0.00255857      -0.00017163       0.00176794        0        0       -1       58       26 
Fe      -0.41327671      24.31346036     117.82477713      -0.00116498       0.00066649       0.00299000        0        0       -1       58       26 
Fe       1.00058221      25.95769799     116.68412110       0.00160522      -0.00115302      -0.00036855        0        0       -1       58       26 
Fe      -0.41310291      27.09588545     118.33015010      -0.00051315      -0.00041317      -0.00091900        0        0       -1       58       26 
Fe       1.00127847      28.74049041     117.19039129       0.00030479      -0.00059617      -0.00300032        0        0       -1       58       26 
Fe      -0.41359506      29.87980016     118.83610696       0.00104473      -0.00060794      -0.00191690        0        0       -1       58       26 
Fe       1.00147907      31.52507184     117.69734184       0.00029994      -0.00013500      -0.00261296        0        0       -1       58       26 
Fe       1.00213258       0.39032177     114.91306284      -0.00043006       0.00042811       0.00043745        0        0       -1       58       26 
Fe      -0.41290819       1.53035694     116.55937274      -0.00016977      -0.00024021      -0.00148190        0        0       -1       58       26 
Fe       1.00316547       3.17590825     115.42155780      -0.00260235      -0.00025898      -0.00142403        0        0       -1       58       26 
Fe      -0.41237587       4.31726355     117.06653881       0.00007579      -0.00313542      -0.00000091        0        0       -1       58       26 
Fe       1.00390165       5.96194126     115.92761367      -0.00434712       0.00072709       0.00426961        0        0       -1       58       26 
Fe      -0.41179693       7.10266403     117.57324471      -0.00092208      -0.00024029       0.00309794        0        0       -1       58       26 
Fe       1.00369783       8.74844888     116.43519453      -0.00208957       0.00043874       0.00567114        0        0       -1       58       26 
Fe      -0.41158954       9.88748767     118.08129437      -0.00213978       0.00088530       0.00510577        0        0       -1       58       26 
Fe       1.00291905      11.53455458     116.94481771       0.00054666      -0.00030605       0.00271620        0        0       -1       58       26 
Fe      -0.41204168      12.67264215     118.59074126      -0.00096691       0.00079924      -0.00017125        0        0       -1       58       26 
Fe       1.00218215      14.32005808     117.45389997       0.00024459      -0.00324431      -0.00307847        0        0       -1       58       26 
Fe      -0.41248647      15.45815191     119.09892875       0.00060445      -0.00126505      -0.00476996        0        0       -1       58       26 
Fe       1.00166134      17.10431980     117.96003154       0.00033870      -0.00308888      -0.00516740        0        0       -1       58       26 
Fe      -0.41212836      18.24268969     119.60438942       0.00012873      -0.00336955      -0.00549511        0        0       -1       58       26 
Fe       1.00196512      19.88729111     118.46316096       0.00006649      -0.00102251      -0.00137909        0        0       -1       58       26 
Fe      -0.41111627      21.02511953     120.10787596      -0.00180915      -0.00058261      -0.00234588        0        0       -1       58       26 
Fe       1.00290364      22.66943922     118.96636944      -0.00163945      -0.00003328       0.00043847        0        0       -1       58       26 