16944
Lattice="16.98 0.0 0.0 0.0 75.5138186 0.0 0.0 0.0 150.290516" Properties=species:S:1:pos:R:3:force:R:3:map_shift:I:3:n_neighb:I:1:Z:I:1 virial="-168.64648329 0.02751647 2.08430677 0.02751647 -333.56111737 -2.61264266 2.08430677 -2.61264266 -0.25649656" cutoff=5.3 adsorbate_info=T nneightol=1.2 energy=-67819.34848544 pbc="T T T"
Fe      15.82699538      44.87785179      11.76999544       0.00005551      -0.00017587       0.00060749       -1       -1        0       58       26
Fe      14.41090913      43.81726877      10.07322458       0.00023666      -0.00013371       0.00083320       -1       -1        0       58       26
Fe       0.28264934       5.30021418     113.57897770       0.00133855       0.00264029      -0.00011350        0        0       -1       58       26
Fe       0.28485649       7.85500316     112.43752457      -0.00324622       0.00168147      -0.00069476        0        0       -1       53       26
Fe       0.28087657       7.88638399     114.69547104       0.00309307      -0.00089754       0.00333820        0        0       -1       53       26
Fe       1.69783054       9.53280386     113.55408378       0.00159847      -0.00211414      -0.00315705        0        0       -1       53       26
Fe       0.28208608      10.79436677     115.00681522      -0.00151802      -0.00195827      -0.00018453        0        0       -1       58       26
Fe       1.69800456      12.46868283     113.71208918      -0.00043692      -0.00198195       0.00290729        0        0       -1       63       26
Fe       0.28136300      13.39408512     115.60880826       0.00027797       0.00017364      -0.00020700        0        0       -1       56       26
Fe       1.69676324      15.09655498     114.72064750      -0.00109859       0.00159130       0.00195013        0        0       -1       52       26
Fe       0.28062279      16.29259665     116.24469911      -0.00110244       0.00164948       0.00121170        0        0       -1       55       26
Fe       1.69619203      17.99880405     115.04084293       0.00059305       0.00123805       0.00186827        0        0       -1       58       26
Fe       0.27910844      18.98377924     116.77872518      -0.00010589      -0.00086442       0.00042859        0        0       -1       56       26
Fe       1.69433593      20.62547295     115.67732675      -0.00028834      -0.00140360       0.00069937        0        0       -1       56       26
Fe       0.27750072      21.67566169     117.45513400       0.00057915       0.00053694      -0.00116994        0        0       -1       57       26
Fe       1.69368672      23.37671247     116.46533405       0.00014242       0.00019473      -0.00191973        0        0       -1       56       26
Fe       0.27689110      24.46309035     118.16324512       0.00082094       0.00114453      -0.00194889        0        0       -1       58       26
Fe       1.69330211      26.17968039     117.15889478       0.00059204       0.00033559      -0.00140078        0        0       -1       57       26
Fe       0.27668250      27.26190543     118.83593609       0.00091639      -0.00076128      -0.00107534        0        0       -1       58       26
Fe       1.69313845      28.99593701     117.82410376       0.00046666      -0.00032247      -0.00013625        0        0       -1       58       26
Fe       0.27684090      30.05335199     119.48349414      -0.00032830      -0.00005886       0.00123758        0        0       -1       58       26
Fe       1.69294798      31.74169490     118.38972200       0.00181457      -0.00213769       0.00011051        0        0       -1       58       26
Fe       0.27691354      32.80443729     120.07501078       0.00105880      -0.00090678       0.00023565        0        0       -1       58       26
Fe       1.69353379      34.49675205     118.98845040       0.00019021       0.00012748       0.00039916        0        0       -1       58       26
Fe       0.27789120      35.54158561     120.69374651      -0.00079121       0.00040063      -0.00084175        0        0       -1       58       26
Fe       1.69438161      37.23053273     119.62072735       0.00041466      -0.00130590      -0.00044750        0        0       -1       58       26
Fe       1.69677645       0.82042405     113.73346210       0.00352945      -0.00010334      -0.00158012        0        0       -1       58       26
Fe       0.28209220       1.74890652     115.67992645      -0.00284214      -0.00211015      -0.00104241        0        0       -1       56       26
Fe       1.69688596       3.49487115     114.74919416      -0.00014094      -0.00024120       0.00088790        0        0       -1       52       26
Fe       0.28147214       4.49856355     116.46411058       0.00015026       0.00172308       0.00022992        0        0       -1       56       26
Fe       1.69639783       6.14940204     115.46929062       0.00026945       0.00057814       0.00248185        0        0       -1       56       26
Fe       0.28104794       7.30108326     117.15627014      -0.00090582      -0.00048917       0.00155721        0        0       -1       57       26
Fe       1.69559906       9.08361104     116.18074484       0.00331557      -0.00323652      -0.00036784        0        0       -1       56       26
Fe       0.28052961      10.11557984     117.82414585       0.00071402       0.00016689      -0.00072083        0        0       -1       58       26
Fe       1.69620126      11.78044383     116.71256150      -0.00193916      -0.00037682      -0.00223756        0        0       -1       56       26
Fe       0.28006462      12.86044074     118.39037260      -0.00008600       0.00010211      -0.00207480        0        0       -1       58       26
Fe       1.69526935      14.54399846     117.29638679      -0.00095158       0.00032314      -0.00105050        0        0       -1       57       26
Fe       0.27877458      15.61677864     118.98661617      -0.00203099      -0.00022981       0.00168578        0        0       -1       58       26
Fe       1.69381337      17.32389122     117.91268117      -0.00094157       0.00090503       0.00228153        0        0       -1       58       26
Fe       0.27637158      18.35107708     119.61693518       0.00066739      -0.00008340       0.00167990        0        0       -1       58       26
Fe       1.69181476      20.01252981     118.51923677       0.00063627       0.00027211       0.00143487        0        0       -1       58       26
Fe       0.27459934      21.07656586     120.23928370       0.00054497       0.00114225       0.00016092        0        0       -1       58       26
Fe       1.69066838      22.75771956     119.18168104       0.00081248       0.00056275      -0.00190316        0        0       -1       58       26
Fe       0.27402881      23.83747853     120.89176431      -0.00037439      -0.00048970      -0.00045659        0        0       -1       58       26
Fe       1.69046528      25.54375131     119.85975795      -0.00060435      -0.00043517      -0.00149716        0        0       -1       58       26
Fe       0.27390783      26.61774462     121.55438002       0.00017849      -0.00180998       0.00050692        0        0       -1       58       26
Fe       1.69032394      28.33211064     120.52007981       0.00035459      -0.00128875       0.00130030        0        0       -1       58       26
Fe       0.27405622      29.39599458     122.20704440       0.00088308      -0.00049238       0.00064229        0        0       -1       58       26
Fe       1.69065270      31.10904739     121.15741165      -0.00073780      -0.00042356       0.00027567        0        0       -1       58       26
Fe       0.27443402      32.15886785     122.84429594       0.00193852       0.00009751      -0.00007947        0        0       -1       58       26
Fe       1.69101701      33.85297906     121.77071958       0.00130671       0.00027295       0.00034706        0        0       -1       58       26
Fe      17.25543788      34.90478295     123.46781210       0.00086953       0.00103615      -0.00073084       -1        0       -1       58       26
Fe       1.69221643      36.59397694     122.39561094       0.00088909       0.00062394      -0.00094955        0        0       -1       58       26
Fe       1.69655674       0.10823528     116.78297992      -0.00148282      -0.00182118      -0.00074391        0        0       -1       56       26
Fe       0.28061600       1.13594036     118.52274765       0.00027892      -0.00102928       0.00001921        0        0       -1       58       26
Fe       1.69639808       2.79870685     117.45679329      -0.00130667      -0.00028850      -0.00151720        0        0       -1       57       26
Fe       0.28094243       3.88025453     119.18250747      -0.00090555      -0.00117651      -0.00021490        0        0       -1       58       26
Fe       1.69610021       5.58517360     118.16197277      -0.00050331      -0.00219960       0.00013740        0        0       -1       58       26
Fe       0.28075717       6.66420803     119.85955513      -0.00100465      -0.00053997       0.00037944        0        0       -1       58       26
Fe       1.69556186       8.38169094     118.83518809       0.00037846       0.00014187       0.00107437        0        0       -1       58       26
Fe       0.28023451       9.45128665     120.52081395      -0.00120769       0.00102445      -0.00191111        0        0       -1       58       26
Fe       1.69507056      11.17249888     119.48463284      -0.00126826       0.00050204      -0.00180715        0        0       -1       58       26
Fe       0.27902526      12.23016687     121.15769461      -0.00185760       0.00015929      -0.00088725        0        0       -1       58       26
Fe       1.69349320      13.92515518     120.07481311       0.00066493      -0.00026669      -0.00139410        0        0       -1       58       26
Fe       0.27662493      14.97658554     121.76941332      -0.00097188      -0.00179432      -0.00163260        0        0       -1       58       26
Fe       1.69127565      16.66383389     120.69124415      -0.00011347      -0.00052579      -0.00007971        0        0       -1       58       26
Fe       0.27350965      17.71800600     122.39306088       0.00229956       0.00011501       0.00050340        0        0       -1       58       26
Fe       1.68872950      19.40278669     121.32008063       0.00190124       0.00002168       0.00073721        0        0       -1       58       26
Fe       0.27143386      20.46469631     123.02054776       0.00263823       0.00056643       0.00046328        0        0       -1       58       26
Fe       1.68747672      22.14754123     121.94821907       0.00173568       0.00084948      -0.00044245        0        0       -1       58       26
Fe       0.27069911      23.21757496     123.65209759       0.00272548      -0.00018085      -0.00029957        0        0       -1       58       26
Fe       1.68740496      24.91205194     122.59546735       0.00044850      -0.00151852       0.00117076        0        0       -1       58       26
Fe       0.27117407      25.98076560     124.29722471       0.00011605      -0.00186413       0.00015560        0        0       -1       58       26
Fe       1.68755684      27.68515071     123.25014800       0.00143635      -0.00122417       0.00052282        0        0       -1       58       26
Fe       0.27173198      28.74688975     124.94789901       0.00030253       0.00035588      -0.00031433        0        0       -1       58       26
Fe       1.68817830      30.45315956     123.89911657       0.00015436       0.00045669       0.00041055        0        0       -1       58       26
Fe       0.27257080      31.50952928     125.59359999      -0.00003760       0.00107263       0.00003328        0        0       -1       58       26
Fe       1.68878357      33.21084449     124.53632828       0.00183728       0.00091278      -0.00114764        0        0       -1       58       26
Fe       0.27359456      34.26706596     126.22926073      -0.00028020       0.00206723       0.00019216        0        0       -1       58       26
Fe       1.69014956      35.96175900     125.16344969       0.00002787       0.00061716      -0.00085253        0        0       -1       58       26
Fe       0.27476065      37.02191328     126.85808687      -0.00079336      -0.00011031      -0.00169070        0        0       -1       58       26
Fe       0.27915427       0.52366665     121.32303032      -0.00156229       0.00026925       0.00063487        0        0       -1       58       26
Fe       1.69531171       2.19884550     120.24188124      -0.00120974      -0.00069915      -0.00026167        0        0       -1       58       26
Fe       0.28003941       3.26800693     121.95017997      -0.00184926       0.00016712      -0.00029830        0        0       -1       58       26
Fe       1.69553369       4.95828589     120.89289001      -0.00078398      -0.00082006      -0.00039408        0        0       -1       58       26
Fe       0.28013741       6.03190841     122.59684227      -0.00224834      -0.00076053      -0.00193926        0        0       -1       58       26
Fe       1.69523070       7.73716202     121.55509533      -0.00122987       0.00023487      -0.00046047        0        0       -1       58       26
Fe       0.27944447       8.80639469     123.25025802      -0.00333253      -0.00056418      -0.00093281        0        0       -1       58       26
Fe       1.69430775      10.51687051     122.20696611      -0.00282125       0.00171814       0.00024691        0        0       -1       58       26
Fe       0.27740709      11.57742194     123.89753377      -0.00175737      -0.00156706       0.00055671        0        0       -1       58       26
Fe       1.69201597      13.28292087     122.84302753      -0.00162716      -0.00160294      -0.00046514        0        0       -1       58       26
Fe       0.27447607      14.33699161     124.53416671       0.00005174      -0.00030672       0.00015611        0        0       -1       58       26
Fe       1.68898149      16.03020588     123.46570398      -0.00006804      -0.00042094       0.00090674        0        0       -1       58       26
Fe       0.27139194      17.08811559     125.16145018       0.00195631      -0.00157057      -0.00025000        0        0       -1       58       26
Fe       1.68603530      18.77791699     124.09189874       0.00274879      -0.00079745      -0.00082569        0        0       -1       58       26
Fe       0.26915115      19.83967480     125.78936423       0.00319163      -0.00181890      -0.00062483        0        0       -1       58       26
Fe       1.68469548      21.52909010     124.72010632       0.00213537      -0.00052830      -0.00064056        0        0       -1       58       26
Fe       0.26856106      22.59221594     126.41969760       0.00195411       0.00014610      -0.00057120        0        0       -1       58       26
Fe       1.68453521      24.28402744     125.35428683       0.00258162      -0.00007412      -0.00018895        0        0       -1       58       26
Fe       0.26895704      25.34732807     127.05586247       0.00103360       0.00035353       0.00034106        0        0       -1       58       26
Fe       1.68524704      27.04448755     125.99856207       0.00110945      -0.00027181      -0.00010552        0        0       -1       58       26
Fe       0.26965686      28.10640820     127.69919819       0.00186202       0.00007765      -0.00050352        0        0       -1       58       26
Fe       1.68610489      29.80691257     126.64616980       0.00077361       0.00107628      -0.00135002        0        0       -1       58       26
Fe       0.27082513      30.86771395     128.34371762      -0.00013445       0.00022302      -0.00229653        0        0       -1       58       26
Fe       1.68713530      32.56801926     127.28836148       0.00016716       0.00110289      -0.00062466        0        0       -1       58       26
Fe       0.27167018      33.62861495     128.98272634       0.00071736       0.00052239      -0.00026735        0        0       -1       58       26
Fe       1.68815234      35.32661952     127.92250506      -0.00025484       0.00132188       0.00041993        0        0       -1       58       26
Fe       0.27244655      36.38781499     129.61607420      -0.00028165       0.00019871      -0.00045361        0        0       -1       58       26
Fe       0.27682500      -0.10440188     124.09384223       0.00079211       0.00159757      -0.00090467        0        0       -1       58       26
Fe       1.69384029       1.58402008     123.02287959      -0.00237439       0.00027841      -0.00064041        0        0       -1       58       26
Fe       0.27818132       2.64769434     124.72128303      -0.00189838       0.00137471      -0.00065151        0        0       -1       58       26
Fe       1.69450402       4.33697272     123.65340311      -0.00309177       0.00098259      -0.00092862        0        0       -1       58       26
Fe       0.27826966       5.40470896     125.35382327      -0.00243550       0.00141759      -0.00055003        0        0       -1       58       26
Fe       1.69408395       7.10181216     124.29703832      -0.00314227      -0.00023639      -0.00003550        0        0       -1       58       26
Fe       0.27711535       8.16843612     125.99626765      -0.00185247      -0.00151706      -0.00035168        0        0       -1       58       26
Fe       1.69240134       9.87112866     124.94618862      -0.00139944      -0.00187701      -0.00282541        0        0       -1       58       26
Fe       0.27512681      10.93311216     126.64277563      -0.00135188      -0.00162689      -0.00023456        0        0       -1       58       26
Fe       1.68986586      12.63597227     125.59091961       0.00009456      -0.00240232       0.00013747        0        0       -1       58       26
Fe       0.27257479      13.69468248     127.28555136      -0.00002742      -0.00070765      -0.00134798        0        0       -1       58       26
Fe       1.68704920      15.39394892     126.22718728       0.00079562      -0.00103351      -0.00042457        0        0       -1       58       26
Fe       0.27003360      16.45261823     127.92103816       0.00123484      -0.00090197       0.00113625        0        0       -1       58       26
Fe       1.68442971      18.14770710     126.85692134       0.00222436      -0.00074505       0.00007666        0        0       -1       58       26
Fe       0.26815948      19.20736910     128.55299312       0.00209750      -0.00118618      -0.00062643        0        0       -1       58       26
Fe       1.68301894      20.90075101     127.48716366       0.00290031      -0.00113865      -0.00110756        0        0       -1       58       26
Fe       0.26752802      21.96100999     129.18534865       0.00149954      -0.00040952      -0.00245866        0        0       -1       58       26
Fe       1.68296754      23.65389530     128.11953776       0.00198702      -0.00046376      -0.00095589        0        0       -1       58       26
Fe       0.26768935      24.71492708     129.81913701       0.00193119       0.00113478      -0.00115080        0        0       -1       58       26
Fe       1.68367407      26.40926371     128.75674861       0.00032989       0.00031229      -0.00030105        0        0       -1       58       26
Fe       0.26849121      27.47128317     130.45651050       0.00053959       0.00077312      -0.00076329        0        0       -1       58       26
Fe       1.68447936      29.16821428     129.39856188       0.00103292       0.00121343      -0.00088939        0        0       -1       58       26
Fe       0.26936323      30.23083363     131.09660639      -0.00047454       0.00065464      -0.00060892        0        0       -1       58       26
Fe       1.68546388      31.92952471     130.04008480       0.00009692       0.00028361      -0.00178337        0        0       -1       58       26
Fe       0.26999033      32.99187785     131.73579969      -0.00032388       0.00031473      -0.00052184        0        0       -1       58       26
Fe       1.68625853      34.69026561     130.67702995      -0.00118355       0.00062060      -0.00021773        0        0       -1       58       26
Fe       0.27022719      35.75220927     132.37149132      -0.00001744      -0.00117204       0.00063358        0        0       -1       58       26
Fe       1.69150222       0.95730193     125.79024820      -0.00143612       0.00094126      -0.00094081        0        0       -1       58       26
Fe       0.27561269       2.02041898     127.48594915      -0.00250460      -0.00142436      -0.00102037        0        0       -1       58       26
Fe       1.69197105       3.71239345     126.41886588      -0.00163069       0.00078385      -0.00102776        0        0       -1       58       26
Fe       0.27507799       4.77679565     128.11612719      -0.00084090      -0.00186166       0.00091647        0        0       -1       58       26
Fe       1.69124084       6.47072585     127.05287264      -0.00140263      -0.00079791       0.00149716        0        0       -1       58       26
Fe       0.27388128       7.53430211     128.75214309       0.00009981      -0.00094410       0.00148835        0        0       -1       58       26
Fe       1.68973719       9.23200267     127.69527783      -0.00113289      -0.00154820       0.00029822        0        0       -1       58       26
Fe       0.27234592      10.29396586     129.39411415       0.00060063      -0.00090543       0.00054196        0        0       -1       58       26
Fe       1.68771415      11.99376416     128.33971759      -0.00050111      -0.00054940       0.00023814        0        0       -1       58       26
Fe       0.27056083      13.05438470     130.03656435       0.00154391      -0.00002226       0.00039003        0        0       -1       58       26
Fe       1.68561691      14.75410643     128.98026309      -0.00023430       0.00003468       0.00134461        0        0       -1       58       26
Fe       0.26910218      15.81340918     130.67598286      -0.00052620       0.00058888      -0.00037228        0        0       -1       58       26
Fe       1.68364122      17.51146328     129.61617590       0.00110257      -0.00065389      -0.00052419        0        0       -1       58       26
Fe       0.26779933      18.57049971     131.31187077      -0.00063038      -0.00011805       0.00111457        0        0       -1       58       26
Fe       1.68253154      20.26658727     130.24980622       0.00113443       0.00057035      -0.00182401        0        0       -1       58       26
Fe      17.24714111      21.32631150     131.94661248      -0.00009396       0.00046482      -0.00070351       -1        0       -1       58       26
Fe       1.68237901      23.02126561     130.88342874       0.00028594      -0.00037822      -0.00167020        0        0       -1       58       26
Fe       0.26719951      24.08214280     132.58115726      -0.00044884      -0.00146166      -0.00179133        0        0       -1       58       26
Fe       1.68282261      25.77644854     131.51793912      -0.00043589      -0.00028022      -0.00052333        0        0       -1       58       26
Fe       0.26758741      26.83837589     133.21605552      -0.00055695      -0.00047013      -0.00013549        0        0       -1       58       26
Fe       1.68336261      28.53381627     132.15492734       0.00006957       0.00001888       0.00028132        0        0       -1       58       26
Fe       0.26801092      29.59644031     133.85260393       0.00024189      -0.00018623       0.00020620        0        0       -1       58       26
Fe       1.68395790      31.29374705     132.79370865      -0.00022601      -0.00079450      -0.00077593        0        0       -1       58       26
Fe       0.26834869      32.35624757     134.49039763       0.00010847      -0.00015969      -0.00023593        0        0       -1       58       26
Fe       1.68416569      34.05427426     133.43143375       0.00070424      -0.00021554      -0.00046231        0        0       -1       58       26
Fe       0.26843257      35.11597075     135.12749981      -0.00019900      -0.00033931      -0.00095139        0        0       -1       58       26
Fe       1.68411013      36.81339569     134.06672647       0.00085583      -0.00058176       0.00041176        0        0       -1       58       26
Fe       1.68892945       0.32671550     128.55209068      -0.00052543      -0.00068204       0.00021916        0        0       -1       58       26
Fe       0.27260937       1.38855952     130.24650759      -0.00071917      -0.00085347       0.00122622        0        0       -1       58       26
Fe       1.68892325       3.08316952     129.18159691      -0.00075937      -0.00082167      -0.00000424        0        0       -1       58       26
Fe       0.27197942       4.14483889     130.87805452       0.00015174      -0.00068382       0.00043776        0        0       -1       58       26
Fe       1.68789976       5.83924873     129.81390203       0.00090979      -0.00148201       0.00142904        0        0       -1       58       26
Fe       0.27104032       6.90055154     131.51216933       0.00034200       0.00013999       0.00106656        0        0       -1       58       26
Fe       1.68671287       8.59624157     130.45133244       0.00078675      -0.00051980       0.00085132        0        0       -1       58       26
Fe       0.26995196       9.65774163     132.15009364       0.00040220      -0.00027385       0.00109914        0        0       -1       58       26
Fe       1.68550636      11.35533993     131.09250917      -0.00036331       0.00005913       0.00059202        0        0       -1       58       26
Fe       0.26894859      12.41637167     132.79074418      -0.00121584      -0.00049974       0.00027406        0        0       -1       58       26
Fe       1.68411039      14.11472319     131.73363098      -0.00048088       0.00026211       0.00013661        0        0       -1       58       26
Fe       0.26759466      15.17490420     133.43093202      -0.00072427       0.00111021      -0.00087152        0        0       -1       58       26
Fe       1.68270440      16.87290493     132.37210062       0.00000914       0.00101197       0.00060977        0        0       -1       58       26
Fe       0.26643332      17.93284846     134.06854836       0.00044825       0.00092176       0.00040352        0        0       -1       58       26
Fe       1.68195240      19.62990906     133.00818290      -0.00077896       0.00097065       0.00036066        0        0       -1       58       26
Fe       0.26608896      20.69009665     134.70456771      -0.00077535       0.00028038       0.00042110        0        0       -1       58       26
Fe       1.68169666      22.38651907     133.64349379      -0.00049187       0.00060592      -0.00130116        0        0       -1       58       26
Fe       0.26603866      23.44718773     135.34019366      -0.00077577       0.00013089      -0.00099573        0        0       -1       58       26
Fe       1.68178665      25.14319664     134.27843342      -0.00006696      -0.00064036      -0.00075753        0        0       -1       58       26
Fe       0.26624895      26.20461440     135.97548376      -0.00032903      -0.00082883      -0.00173359        0        0       -1       58       26
Fe       1.68218273      27.90034691     134.91358712      -0.00044851      -0.00033026      -0.00096402        0        0       -1       58       26
Fe       0.26671111      28.96247210     136.61059575      -0.00081717      -0.00027850      -0.00046854        0        0       -1       58       26
Fe       1.68264432      30.65887689     135.54971831      -0.00131871       0.00008369       0.00060772        0        0       -1       58       26
Fe      17.24688723      31.72105776     137.24674187       0.00034463      -0.00110912      -0.00136706       -1        0       -1       58       26
Fe       1.68270868      33.41829447     136.18699218      -0.00040783      -0.00035008      -0.00065505        0        0       -1       58       26
Fe       0.26695889      34.47991092     137.88364560       0.00076918      -0.00062207      -0.00065344        0        0       -1       58       26
Fe       1.68263145      36.17732901     136.82379554       0.00021440      -0.00113903      -0.00132297        0        0       -1       58       26
Fe       0.26694092      37.23829304     138.52022455       0.00075227      -0.00166950      -0.00088714        0        0       -1       58       26
Fe       1.68638974      -0.30739629     131.30999446      -0.00043708      -0.00108977       0.00035586        0        0       -1       58       26
Fe       0.26994654       0.75343590     133.00487507       0.00094949      -0.00047284       0.00106130        0        0       -1       58       26
Fe       1.68595485       2.44966890     131.94191766       0.00047524      -0.00096419       0.00058303        0        0       -1       58       26
Fe       0.26942036       3.51003828     133.63814872       0.00172311      -0.00020065       0.00044409        0        0       -1       58       26
Fe       1.68534747       5.20567270     132.57516804      -0.00003386      -0.00161073      -0.00037710        0        0       -1       58       26
Fe       0.26882542       6.26618155     134.27246543       0.00157506      -0.00108646      -0.00033729        0        0       -1       58       26
Fe       1.68447328       7.96164821     133.21027254       0.00021783      -0.00037949       0.00115739        0        0       -1       58       26