5064
Lattice="16.98 0.0 0.0 0.0 41.20542197 0.0 0.0 0.0 82.45783873" Properties=species:S:1:pos:R:3:force:R:3:map_shift:I:3:n_neighb:I:1:Z:I:1 nneightol=1.2 virial="-47.65912767 0.03280883 -4.6e-07 0.03280883 -23.04484381 0.00010535 -4.6e-07 0.00010535 81.75117006" energy=-20222.67811808 cutoff=5.3 pbc="T T T"
Fe      15.98743745      29.69850758       3.97424768       0.00008900      -0.00022015      -0.00002881       -1       -1        0       58       26 
Fe       0.42403858       3.01373046      62.53245070       0.00002920      -0.00012607      -0.00006002        0        0       -1       55       26 
Fe       0.42367786       5.37825019      63.21046900       0.00004848       0.00004412      -0.00001175        0        0       -1       56       26 
Fe       1.83870025       7.15774976      62.31132515       0.00004811      -0.00007549      -0.00005054        0        0       -1       54       26 
Fe       0.42351280       8.10109282      64.04866806       0.00005727      -0.00004261       0.00007071        0        0       -1       53       26 
Fe       1.83867844       9.81018922      63.08206562       0.00004982       0.00003813       0.00005825        0        0       -1       54       26 
Fe       0.42340472      10.78160664      64.88354297       0.00006120      -0.00019787      -0.00016197        0        0       -1       57       26 
Fe       1.83852467      12.55185068      64.00729192       0.00005792      -0.00015776      -0.00035740        0        0       -1       56       26 
Fe       0.42332886      13.55660159      65.71855255       0.00006444       0.00019418       0.00027756        0        0       -1       58       26 
Fe       1.83849362      15.32067597      64.76438679       0.00005829       0.00003475       0.00020087        0        0       -1       57       26 
Fe       0.42326263      16.30640090      66.48489902       0.00006662      -0.00027131      -0.00020169        0        0       -1       58       26 
Fe       1.83841661      18.07401343      65.52313024       0.00006090      -0.00001785      -0.00007352        0        0       -1       58       26 
Fe       0.42318288      19.03946293      67.24365849       0.00006909      -0.00000799       0.00003220        0        0       -1       58       26 
Fe       1.83875554       0.86923306      63.37400512       0.00004422       0.00006437      -0.00012722        0        0       -1       57       26 
Fe       0.42345821       1.87456636      65.17207678       0.00005841       0.00003459      -0.00001396        0        0       -1       56       26 
Fe       1.83860840       3.66736025      64.35538199       0.00005142      -0.00011630       0.00009473        0        0       -1       54       26 
Fe       0.42332039       4.63586241      66.04380953       0.00006436      -0.00013673       0.00006754        0        0       -1       58       26 
Fe       1.83841477       6.34552285      65.00835128       0.00006106       0.00000664      -0.00001978        0        0       -1       57       26 
Fe       0.42318083       7.31023573      66.78719667       0.00007050      -0.00006286      -0.00002377        0        0       -1       58       26 
Fe       1.83828739       9.04638323      65.82788763       0.00006686      -0.00009381      -0.00009817        0        0       -1       58       26 
Fe       0.42307741      10.03239169      67.58609573       0.00007410      -0.00001450       0.00004160        0        0       -1       58       26 
Fe       1.83819566      11.78351346      66.63793889       0.00007117      -0.00001200       0.00021345        0        0       -1       58       26 
Fe       0.42299831      12.77342685      68.38473650       0.00007609      -0.00021071      -0.00017762        0        0       -1       58       26 
Fe       1.83812058      14.54159223      67.44464568       0.00007210      -0.00024591      -0.00032210        0        0       -1       58       26 
Fe       0.42292837      15.51745837      69.17951320       0.00007741       0.00000248       0.00024496        0        0       -1       58       26 
Fe       1.83805116      17.27895326      68.21715345       0.00007432       0.00001206       0.00020083        0        0       -1       58       26 
Fe       0.42285906      18.24623666      69.95435939       0.00007873      -0.00016053      -0.00014305        0        0       -1       58       26 
Fe       1.83796974      19.99943064      68.97646728       0.00007570      -0.00010828      -0.00002491        0        0       -1       58       26 
Fe       1.83832370       0.17131251      66.21792905       0.00006414      -0.00016587       0.00003903        0        0       -1       57       26 
Fe       0.42308300       1.13048855      67.96954388       0.00007266      -0.00012053       0.00008894        0        0       -1       58       26 
Fe       1.83819447       2.85637909      66.96907458       0.00006864       0.00001387      -0.00000392        0        0       -1       58       26 
Fe       0.42298135       3.83031100      68.73810717       0.00007590      -0.00008592      -0.00003628        0        0       -1       58       26 
Fe       1.83808549       5.58447963      67.78505965       0.00007301      -0.00011763       0.00001306        0        0       -1       58       26 
Fe       0.42288297       6.55248856      69.53120212       0.00007896      -0.00008751       0.00000715        0        0       -1       58       26 
Fe       1.83797478       8.28913459      68.54938141       0.00007694      -0.00010462       0.00001249        0        0       -1       58       26 
Fe       0.42279658       9.27035660      70.30331619       0.00008112      -0.00008828       0.00004390        0        0       -1       58       26 
Fe       1.83788993      11.01800797      69.33816186       0.00007925      -0.00012853      -0.00003477        0        0       -1       58       26 
Fe       0.42272694      11.99874090      71.08862696       0.00008219      -0.00019055      -0.00000757        0        0       -1       58       26 
Fe       1.83782296      13.75446971      70.13097354       0.00008030      -0.00000787       0.00008793        0        0       -1       58       26 
Fe       0.42266953      14.72998220      71.87781583       0.00008293      -0.00006189      -0.00006687        0        0       -1       58       26 
Fe       1.83775891      16.48860852      70.91976482       0.00008124      -0.00027842      -0.00010759        0        0       -1       58       26 
Fe       0.42261403      17.45809442      72.66316706       0.00008326      -0.00021979       0.00008335        0        0       -1       58       26 
Fe       1.83769409      19.21210818      71.69563037       0.00008184      -0.00002057       0.00000843        0        0       -1       58       26 
Fe       0.42255873      20.17975165      73.43876879       0.00008374      -0.00001735      -0.00001579        0        0       -1       58       26 
Fe       0.42278396       0.35824419      70.71784889       0.00008009      -0.00016376       0.00001464        0        0       -1       58       26 
Fe       1.83788085       2.09522364      69.72438090       0.00007805      -0.00013089      -0.00004832        0        0       -1       58       26 
Fe       0.42270933       3.06489275      71.47669068       0.00008161      -0.00002038       0.00005913        0        0       -1       58       26 
Fe       1.83779269       4.80463930      70.49665677       0.00008056      -0.00011428       0.00007678        0        0       -1       58       26 
Fe       0.42263701       5.78047847      72.24915878       0.00008319      -0.00019990       0.00000296        0        0       -1       58       26 
Fe       1.83771320       7.52726681      71.27883839       0.00008232      -0.00008408       0.00001426        0        0       -1       58       26 
Fe       0.42257397       8.50285401      73.02735252       0.00008428      -0.00015076      -0.00004240        0        0       -1       58       26 
Fe       1.83764478      10.24909049      72.05465397       0.00008330      -0.00015743      -0.00009276        0        0       -1       58       26 
Fe       0.42252137      11.22530112      73.80532890       0.00008488      -0.00003366       0.00012456        0        0       -1       58       26 
Fe       1.83758984      12.97548585      72.83874095       0.00008400      -0.00014486       0.00013781        0        0       -1       58       26 
Fe       0.42247737      13.94984317      74.58859316       0.00008511      -0.00031170      -0.00013090        0        0       -1       58       26 
Fe       1.83754077      15.70284431      73.62526644       0.00008431      -0.00010183      -0.00011604        0        0       -1       58       26 
Fe       0.42243809      16.67503228      75.37286995       0.00008502       0.00000027       0.00011546        0        0       -1       58       26 
Fe       1.83749467      18.42797766      74.40787253       0.00008445      -0.00022105       0.00012154        0        0       -1       58       26 
Fe       0.42240232      19.39883458      76.15304740       0.00008520      -0.00032005      -0.00008845        0        0       -1       58       26 
Fe       1.83763138       1.32451106      72.46206232       0.00008288      -0.00019481       0.00012211        0        0       -1       58       26 
Fe       0.42250592       2.29412279      74.20708826       0.00008427      -0.00030576      -0.00002577        0        0       -1       58       26 
Fe       1.83756816       4.03741267      73.22650562       0.00008403      -0.00009636      -0.00012329        0        0       -1       58       26 
Fe       0.42245669       5.01069344      74.97508090       0.00008502      -0.00001889       0.00005787        0        0       -1       58       26 
Fe       1.83751208       6.75584893      73.99933840       0.00008469      -0.00017695       0.00007447        0        0       -1       58       26 
Fe       0.42241502       7.73020932      75.74868856       0.00008552      -0.00021630       0.00001107        0        0       -1       58       26 
Fe       1.83746352       9.47762764      74.77654471       0.00008518      -0.00010034       0.00007222        0        0       -1       58       26 
Fe       0.42238061      10.45150685      76.52603846       0.00008590      -0.00017106      -0.00007532        0        0       -1       58       26 
Fe       1.83742417      12.19974978      75.55564412       0.00008557      -0.00023970      -0.00015951        0        0       -1       58       26 
Fe       0.42235349      13.17346727      77.30573387       0.00008606      -0.00010403       0.00018485        0        0       -1       58       26 
Fe       1.83739102      14.92331511      76.33815908       0.00008553      -0.00006456       0.00021881        0        0       -1       58       26 
Fe       0.42233172      15.89648062      78.08712144       0.00008632      -0.00026324      -0.00022002        0        0       -1       58       26 
Fe       1.83736254      17.64729905      77.12020209       0.00008582      -0.00025719      -0.00020288        0        0       -1       58       26 
Fe       0.42231453      18.61976461      78.86750657       0.00008656      -0.00010643       0.00022756        0        0       -1       58       26 
Fe       1.83733788      20.37036086      77.89862742       0.00008605      -0.00010182       0.00017454        0        0       -1       58       26 
Fe       1.83745024       0.54669773      75.18275320       0.00008467      -0.00010045      -0.00014772        0        0       -1       58       26 
Fe       0.42236963       1.51755208      76.92745501       0.00008585      -0.00002964       0.00009792        0        0       -1       58       26 
Fe       1.83740911       3.26535325      75.95269050       0.00008526      -0.00019224       0.00016804        0        0       -1       58       26 
Fe       0.42234157       4.23703104      77.69868664       0.00008605      -0.00027968      -0.00007581        0        0       -1       58       26 
Fe       1.83737411       5.98372583      76.72311796       0.00008576      -0.00014911      -0.00010312        0        0       -1       58       26 
Fe       0.42232034       6.95643021      78.47109551       0.00008638      -0.00007612       0.00006384        0        0       -1       58       26 
Fe       1.83734626       8.70374604      77.49780992       0.00008614      -0.00020598       0.00006688        0        0       -1       58       26 
Fe       0.42230572       9.67681778      79.24677865       0.00008687      -0.00027957       0.00001680        0        0       -1       58       26 
Fe       1.83732509      11.42493846      78.27561129       0.00008652      -0.00007497       0.00002857        0        0       -1       58       26 
Fe       0.42229713      12.39818675      80.02501913       0.00008723      -0.00007024      -0.00007086        0        0       -1       58       26 
Fe       1.83730996      14.14686584      79.05534703       0.00008678      -0.00033684      -0.00007510        0        0       -1       58       26 
Fe       0.42229394      15.12018046      80.80474057       0.00008753      -0.00028203       0.00017092        0        0       -1       58       26 
Fe       1.83729984      16.86962847      79.83586138       0.00008704       0.00002615       0.00013076        0        0       -1       58       26 
Fe       0.42229577      17.84253230      81.58434822       0.00008798      -0.00008790      -0.00021319        0        0       -1       58       26 
Fe       1.83729452      19.59207327      80.61468985       0.00008752      -0.00040519      -0.00010261        0        0       -1       58       26 
Fe       0.42230187       0.73929687      79.64442981       0.00008703      -0.00021840      -0.00018366        0        0       -1       58       26 
Fe       1.83731757       2.48881303      78.67267418       0.00008636      -0.00024444      -0.00012646        0        0       -1       58       26 
Fe       0.42229449       3.46023120      80.41843357       0.00008732      -0.00017119       0.00013972        0        0       -1       58       26 
Fe       1.83730308       5.20881897      79.44513008       0.00008677      -0.00014022       0.00010465        0        0       -1       58       26 
Fe       0.42229336       6.18057779      81.19174558       0.00008771      -0.00022814      -0.00005865        0        0       -1       58       26 
Fe       1.83729516       7.92887710      80.21898612       0.00008724      -0.00016493      -0.00009031        0        0       -1       58       26 
Fe       0.42229842       8.90129084      81.96689376       0.00008821      -0.00006683       0.00002531        0        0       -1       58       26 
Fe       1.83729329      10.64973933      80.99565622       0.00008772      -0.00026105       0.00012865        0        0       -1       58       26 
Fe       1.83729694      13.37134540      81.77429232       0.00008807      -0.00003902      -0.00010483        0        0       -1       58       26 
Fe       1.83729436       1.71095651      81.39060035       0.00008790       0.00000263       0.00006260        0        0       -1       58       26 
Fe       1.83730021       4.43164787      82.16436408       0.00008823      -0.00029692      -0.00002071        0        0       -1       58       26 
Fe       0.42361089      11.62025933      62.30165835       0.00005336       0.00003365       0.00016279        0        0       -1       54       26 
Fe       0.42377955      14.23781198      63.05842877       0.00004259      -0.00011726      -0.00014767        0        0       -1       56       26 
Fe       1.83885564      15.98996430      62.30327245       0.00004014      -0.00002643       0.00011096        0        0       -1       53       26 
Fe       0.42364995      17.14064398      63.82285797       0.00005015      -0.00003334      -0.00001759        0        0       -1       55       26 
Fe       1.83893954      18.89481943      62.67826874       0.00003609      -0.00008797      -0.00008325        0        0       -1       57       26 
Fe       0.42358452      19.78412159      64.49884123       0.00005269      -0.00011166       0.00012638        0        0       -1       58       26 
Fe       0.42230279      -0.03844153      82.36205667       0.00008841      -0.00029566       0.00022556        0        0       -1       58       26 
Fe       0.42433985       9.05904458      61.15231454       0.00001351       0.00001130      -0.00005597        0        0       -1       58       26 
Fe       0.42507300      11.64790204      60.01829758      -0.00002642       0.00004851      -0.00014043        0        0       -1       54       26 
Fe       1.83934994      13.46060129      61.16082592       0.00001359       0.00005835       0.00008465        0        0       -1       58       26 
Fe       0.42491704      14.25165078      59.26435646      -0.00001767       0.00038938       0.00002152        0        0       -1       56       26 
Fe       1.83982430      15.99314232      60.03063794      -0.00001254      -0.00011314      -0.00034095        0        0       -1       53       26 
Fe       0.42503133      17.13635085      58.49762846      -0.00002460      -0.00015078       0.00005862        0        0       -1       55       26 
Fe       1.83973450      18.84555739      59.63140877      -0.00000792       0.00009729       0.00011998        0        0       -1       57       26 
Fe       0.42513309      19.83666315      57.90870727      -0.00003027       0.00021683      -0.00003904        0        0       -1       58       26 
Fe       1.84006837       0.95284244      58.90983490      -0.00002697       0.00002593      -0.00017906        0        0       -1       57       26 
Fe       0.42530678       1.95414107      57.13984779      -0.00003998       0.00000071       0.00007571        0        0       -1       56       26 
Fe       1.84014001       3.75145975      58.01961047      -0.00003051       0.00008071       0.00015101        0        0       -1       56       26 
Fe       0.42542976       4.67784807      56.28236464      -0.00004658       0.00021209      -0.00004022        0        0       -1       58       26 
Fe       1.84003435       7.22934781      59.98115812      -0.00002456       0.00009200       0.00004790        0        0       -1       54       26 
Fe       0.42521411       8.15617851      58.24128463      -0.00003478       0.00014659      -0.00005066        0        0       -1       53       26 
Fe       1.84002827       9.84914925      59.22830038      -0.00002436       0.00013201      -0.00004370        0        0       -1       54       26 
Fe       0.42531207      10.81760069      57.42376642      -0.00003944       0.00016613       0.00006436        0        0       -1       57       26 
Fe       1.84017743      12.57702517      58.30660539      -0.00003289      -0.00012131      -0.00008330        0        0       -1       56       26 
Fe       0.42539458      13.58760641      56.59718881      -0.00004446       0.00006537      -0.00010431        0        0       -1       58       26 
Fe       1.84021400      15.33917041      57.55657355      -0.00003464       0.00017556       0.00012570        0        0       -1       57       26 
Fe       0.42547039      16.35247497      55.85031963      -0.00004826       0.00013588      -0.00007442        0        0       -1       58       26 
Fe       1.84030432      18.12658058      56.82512685      -0.00003929       0.00013611      -0.00015726        0        0       -1       58       26 
Fe       0.42556671      19.08697789      55.10745116      -0.00005330       0.00012332       0.00007447        0        0       -1       58       26 
Fe       1.84042858       0.21027698      56.14286929      -0.00004614       0.00008085       0.00006291        0        0       -1       59       26 
Fe       0.42568451       1.16795864      54.37414807      -0.00005883       0.00012004      -0.00003974        0        0       -1       58       26 
Fe       1.84056188       2.90712611      55.35164074      -0.00005296       0.00010693      -0.00006870        0        0       -1       58       26 
Fe       0.42580266       3.87065227      53.58189188      -0.00006469       0.00007723      -0.00000945        0        0       -1       58       26 
Fe       1.84068563       5.62385556      54.53166552      -0.00005949       0.00017168       0.00009200        0        0       -1       58       26 
Fe       1.84032571       6.40442687      57.28527824      -0.00004092       0.00007488      -0.00009595        0        0       -1       57       26 
Fe       0.42557127       7.35722511      55.51053741      -0.00005351       0.00001786       0.00000433        0        0       -1       58       26 
Fe       1.84044907       9.09334985      56.46745758      -0.00004736       0.00008171       0.00005244        0        0       -1       58       26 
Fe       0.42567889      10.07778180      54.71564973      -0.00005895       0.00023271      -0.00003269        0        0       -1       58       26 
Fe       1.84054133      11.82284804      55.67132552      -0.00005231       0.00014997      -0.00007925        0        0       -1       58       26 
Fe       0.42576448      12.82065883      53.93132035      -0.00006299      -0.00002450      -0.00000498        0        0       -1       58       26 
Fe       1.84062611      14.58748047      54.88000924      -0.00005602       0.00015573       0.00005861        0        0       -1       58       26 
Fe       0.42584884      15.56637407      53.14934747      -0.00006671       0.00034798      -0.00001820        0        0       -1       58       26 
Fe       1.84071070      17.32755621      54.12136123      -0.00005984       0.00004183      -0.00008014        0        0       -1       58       26 
Fe       0.42593418      18.28993479      52.38164505      -0.00007070      -0.00004094      -0.00003016        0        0       -1       58       26 
Fe       1.84080725      20.03951797      53.36662291      -0.00006459       0.00022210       0.00004693        0        0       -1       58       26 
Fe       0.42602323       0.39473052      51.61856405      -0.00007420       0.00026710      -0.00000943        0        0       -1       58       26 
Fe       1.84091416       2.13017632      52.60945451      -0.00006978       0.00013675      -0.00002605        0        0       -1       58       26 
Fe       0.42611777       3.09997328      50.85209006      -0.00007784       0.00011951       0.00006086        0        0       -1       58       26 
Fe       1.84101789       4.84290362      51.82321849      -0.00007440       0.00005725       0.00001227        0        0       -1       58       26 
Fe       0.42620380       5.81953833      50.07112317      -0.00008124       0.00015586      -0.00010215        0        0       -1       58       26 
Fe       0.42591124       6.59217595      52.78296589      -0.00006977       0.00023230       0.00007214        0        0       -1       58       26 
Fe       1.84080083       8.33384018      53.75391626      -0.00006480       0.00003455      -0.00007708        0        0       -1       58       26 
Fe       0.42600504       9.31637740      52.00589994      -0.00007380       0.00001225      -0.00008876        0        0       -1       58       26 
Fe       1.84089096      11.06630493      52.97114684      -0.00006888       0.00025073       0.00010170        0        0       -1       58       26 
Fe       0.42608460      12.04773042      51.22618983      -0.00007706       0.00035634       0.00007133        0        0       -1       58       26 
Fe       1.84097259      13.80367739      52.18971412      -0.00007231       0.00000657      -0.00018511        0        0       -1       58       26 
Fe       0.42615968      14.77701337      50.44466988      -0.00007973      -0.00009363      -0.00003973        0        0       -1       58       26 
Fe       1.84105280      16.53454562      51.40912133      -0.00007528       0.00028485       0.00020464        0        0       -1       58       26 
Fe       0.42622970      17.50059609      49.66456848      -0.00008186       0.00040942      -0.00005368        0        0       -1       58       26 
Fe       1.84113068      19.25189022      50.63701793      -0.00007830       0.00007902      -0.00019470        0        0       -1       58       26 
Fe       0.42630015      20.21766098      48.89135187      -0.00008358       0.00001413       0.00006336        0        0       -1       58       26 
Fe       1.84121250       1.36010667      49.86985697      -0.00008138       0.00017506       0.00010242        0        0       -1       58       26 
Fe       0.42636990       2.33036244      48.12200837      -0.00008577       0.00026504      -0.00005354        0        0       -1       58       26 
Fe       1.84129016       4.07388554      49.09982407      -0.00008392       0.00020482      -0.00007546        0        0       -1       58       26 
Fe       0.42643160       5.04848947      47.35009662      -0.00008731       0.00008238       0.00005495        0        0       -1       58       26 
Fe       1.84110824       7.56899360      51.03640554      -0.00007796       0.00028621      -0.00000363        0        0       -1       58       26 
Fe       0.42627770       8.54582964      49.28970055      -0.00008387       0.00017895       0.00015735        0        0       -1       58       26 
Fe       1.84118643      10.29565152      50.25908939      -0.00008081      -0.00002395      -0.00001559        0        0       -1       58       26 
Fe       0.42634331      11.27084078      48.51122200      -0.00008552       0.00012139      -0.00013830        0        0       -1       58       26 
Fe       1.84125664      13.02266045      49.47913373      -0.00008304       0.00032933       0.00008006        0        0       -1       58       26 
Fe       0.42640215      13.99455624      47.73080217      -0.00008687       0.00024206       0.00006148        0        0       -1       58       26 
Fe       1.84132125      15.74693938      48.69765054      -0.00008442       0.00007105      -0.00015828        0        0       -1       58       26 
Fe       0.42645605      16.71685046      46.95030002      -0.00008773       0.00009957       0.00003138        0        0       -1       58       26 
Fe       1.84138218      18.46820701      47.91889488      -0.00008580       0.00019655       0.00016108        0        0       -1       58       26 
Fe       0.42650638      19.43795981      46.17306128      -0.00008853       0.00026935      -0.00007813        0        0       -1       58       26 
Fe       1.84144189       0.58419606      47.14563098      -0.00008755       0.00017656      -0.00012810        0        0       -1       58       26 
Fe       0.42655347       1.55515472      45.39996003      -0.00008895       0.00008568       0.00001348        0        0       -1       58       26 
Fe       1.84149693       3.30247254      46.37481238      -0.00008844       0.00022686       0.00009176        0        0       -1       58       26 
Fe       0.42659358       4.27492952      44.62769649      -0.00008922       0.00032815       0.00007629        0        0       -1       58       26 
Fe       1.84154401       6.02243558      45.60122644      -0.00008892       0.00008611      -0.00010729        0        0       -1       58       26 
Fe       1.84135914       6.79596379      48.32160149      -0.00008595       0.00008888       0.00011313        0        0       -1       58       26 
Fe       0.42648639       7.77083876      46.57254911      -0.00008829       0.00030811      -0.00006145        0        0       -1       58       26 
Fe       1.84141975       9.52061533      47.54181735      -0.00008731       0.00025768      -0.00012012        0        0       -1       58       26 
Fe       0.42653355      10.49379065      45.79307679      -0.00008912       0.00000918       0.00009654        0        0       -1       58       26 
Fe       1.84147280      12.24368270      46.76247139      -0.00008836       0.00011647       0.00011548        0        0       -1       58       26 
Fe       0.42657418      13.21592237      45.01334503      -0.00008922       0.00034072      -0.00005182        0        0       -1       58       26 
Fe       1.84152005      14.96591780      45.98220884      -0.00008871       0.00017955      -0.00004174        0        0       -1       58       26 
Fe       0.42660939      15.93767045      44.23389610      -0.00008929       0.00007478       0.00000125        0        0       -1       58       26 
Fe       1.84156256      17.68772808      45.20316699      -0.00008900       0.00022085      -0.00002839        0        0       -1       58       26 
Fe       0.42663977      18.65929736      43.45631977      -0.00008928       0.00022026       0.00002625        0        0       -1       58       26 
Fe       1.84160085      20.40893759      44.42730890      -0.00008930       0.00019394       0.00005888        0        0       -1       58       26 
Fe       0.42666506       0.77767265      42.68143728      -0.00008906       0.00023726       0.00003762        0        0       -1       58       26 
Fe       1.84163388       2.52669907      43.65404683      -0.00008925       0.00007133      -0.00005188        0        0       -1       58       26 
Fe       0.42668438       3.49829617      41.90788653      -0.00008873       0.00009005      -0.00014431        0        0       -1       58       26 
Fe       1.84166012       5.24716936      42.88044424      -0.00008906       0.00040844       0.00004308        0        0       -1       58       26 
Fe       0.42662678       6.99553563      43.85258879      -0.00008923      -0.00000762      -0.00010009        0        0       -1       58       26 