20952
Lattice="16.98 0.0 0.0 0.0 84.14194911 0.0 0.0 0.0 166.81256918" Properties=species:S:1:pos:R:3:force:R:3:map_shift:I:3:n_neighb:I:1:Z:I:1 virial="-282.14978173 0.0 0.0 0.0 -371.89818022 0.19631944 0.0 0.19631944 -0.12315237" cutoff=5.3 adsorbate_info=T nneightol=1.2 energy=-83871.58085072 pbc="T T T"
Fe      -0.00000000      -0.00804166     125.10601988      -0.00000000       0.00202893      -0.00247436        0        0       -1       50       26 
Fe      15.56500000      55.12581552      18.12112551       0.00000000       0.00019981      -0.00153879       -1       -1        0       58       26 
Fe      14.15000000      54.26799584      16.31362874      -0.00000000      -0.00004294      -0.00106360       -1       -1        0       58       26 
Fe      -0.00000000       6.06922796     126.23646124      -0.00000000       0.00613074       0.00060951        0        0       -1       55       26 
Fe      15.56500000      52.46401478      17.17712739       0.00000000      -0.00045154      -0.00167640       -1       -1        0       58       26 
Fe      -0.00000000       8.06168028     127.67532405      -0.00000000      -0.00155194      -0.00053981        0        0       -1       54       26 
Fe       1.41500000       9.87282759     126.96465711      -0.00000000      -0.00530538       0.00275709        0        0       -1       53       26 
Fe      -0.00000000      10.72457391     128.74134749      -0.00000000      -0.00165054      -0.00065768        0        0       -1       56       26 
Fe       1.41500000      12.54754528     127.91412707      -0.00000000      -0.00177475      -0.00011249        0        0       -1       56       26 
Fe      -0.00000000      13.39825131     129.67618996      -0.00000000      -0.00143646      -0.00164115        0        0       -1       58       26 
Fe       1.41500000      15.17622712     128.76681841      -0.00000000       0.00020717      -0.00071509        0        0       -1       57       26 
Fe      -0.00000000      16.05153113     130.55630931      -0.00000000      -0.00012041      -0.00035249        0        0       -1       58       26 
Fe       1.41500000      17.85240887     129.68264392      -0.00000000      -0.00000747       0.00071012        0        0       -1       58       26 
Fe      -0.00000000      18.72204664     131.46306006      -0.00000000       0.00063197       0.00062213        0        0       -1       58       26 
Fe       1.41500000      20.51470440     130.56553684      -0.00000000      -0.00090324       0.00093660        0        0       -1       58       26 
Fe      -0.00000000      21.38696904     132.35899282      -0.00000000      -0.00079885       0.00031590        0        0       -1       58       26 
Fe       1.41500000      23.18935404     131.47348531      -0.00000000       0.00095585      -0.00120419        0        0       -1       58       26 
Fe      -0.00000000      24.05553957     133.26606033      -0.00000000       0.00194834      -0.00095930        0        0       -1       58       26 
Fe       1.41500000      25.85640088     132.37237201      -0.00000000       0.00140890      -0.00014496        0        0       -1       58       26 
Fe      -0.00000000      26.71927071     134.17260168      -0.00000000       0.00178428      -0.00018093        0        0       -1       58       26 
Fe       1.41500000      28.52474668     133.28347489      -0.00000000      -0.00052703       0.00176535        0        0       -1       58       26 
Fe      -0.00000000      29.37883772     135.08906086      -0.00000000       0.00167746       0.00007232        0        0       -1       58       26 
Fe       1.41500000      31.18398088     134.20081546      -0.00000000      -0.00020219      -0.00093583        0        0       -1       58       26 
Fe      -0.00000000      32.02917103     136.01592768      -0.00000000       0.00043337       0.00012252        0        0       -1       58       26 
Fe       1.41500000      33.83287333     135.13402399      -0.00000000       0.00089937      -0.00203253        0        0       -1       58       26 
Fe      -0.00000000      34.67211511     136.95702502      -0.00000000       0.00108109      -0.00184615        0        0       -1       58       26 
Fe       1.41500000      36.47235120     136.08247541      -0.00000000       0.00106557      -0.00007721        0        0       -1       58       26 
Fe      -0.00000000      37.31439317     137.91074833      -0.00000000      -0.00075830      -0.00223057        0        0       -1       58       26 
Fe       1.41500000      39.11445806     137.04852399      -0.00000000       0.00008621      -0.00105304        0        0       -1       58       26 
Fe      -0.00000000      39.96332113     138.87718430      -0.00000000       0.00104346      -0.00023690        0        0       -1       58       26 
Fe       1.41500000      41.76760214     138.02891789      -0.00000000      -0.00091950      -0.00153458        0        0       -1       58       26 
Fe       1.41500000       1.54759783     126.32459965      -0.00000000       0.00121668      -0.00210120        0        0       -1       55       26 
Fe      -0.00000000       1.92146908     128.26911572      -0.00000000       0.00448166      -0.00376524        0        0       -1       56       26 
Fe       1.41500000       3.88547293     127.53033725      -0.00000000       0.00115885       0.00323109        0        0       -1       53       26 
Fe      -0.00000000       4.47245706     129.41581525      -0.00000000       0.00112040       0.00069831        0        0       -1       53       26 
Fe       1.41500000       6.22938779     128.44373302      -0.00000000      -0.00132004       0.00234646        0        0       -1       57       26 
Fe      -0.00000000       7.07945620     130.29108827      -0.00000000      -0.00031764       0.00198286        0        0       -1       56       26 
Fe       1.41500000       8.89316201     129.50692916      -0.00000000      -0.00136174       0.00168512        0        0       -1       55       26 
Fe      -0.00000000       9.75165850     131.31067772      -0.00000000       0.00040290       0.00047187        0        0       -1       58       26 
Fe       1.41500000      11.58122391     130.51395401      -0.00000000      -0.00116402      -0.00152815        0        0       -1       58       26 
Fe      -0.00000000      12.43860858     132.29223610      -0.00000000       0.00009873      -0.00095037        0        0       -1       58       26 
Fe       1.41500000      14.25664937     131.44591450      -0.00000000      -0.00124533      -0.00112979        0        0       -1       58       26 
Fe      -0.00000000      15.11496358     133.22265157      -0.00000000      -0.00034314      -0.00062293        0        0       -1       58       26 
Fe       1.41500000      16.91907299     132.34298717      -0.00000000      -0.00040508       0.00039014        0        0       -1       58       26 
Fe      -0.00000000      17.78125207     134.12977217      -0.00000000       0.00099323      -0.00053017        0        0       -1       58       26 
Fe       1.41500000      19.58693950     133.24908617      -0.00000000       0.00074008       0.00092433        0        0       -1       58       26 
Fe      -0.00000000      20.44726401     135.03896682      -0.00000000       0.00114481       0.00044913        0        0       -1       58       26 
Fe       1.41500000      22.25156256     134.15297593      -0.00000000       0.00043611      -0.00088069        0        0       -1       58       26 
Fe      -0.00000000      23.11017260     135.94880759      -0.00000000      -0.00044730       0.00055727        0        0       -1       58       26 
Fe       1.41500000      24.91539497     135.06291907      -0.00000000       0.00289434      -0.00170409        0        0       -1       58       26 
Fe      -0.00000000      25.76926872     136.86348424      -0.00000000       0.00080962      -0.00019009        0        0       -1       58       26 
Fe       1.41500000      27.57378858     135.97621085      -0.00000000       0.00141645       0.00027635        0        0       -1       58       26 
Fe      -0.00000000      28.42173605     137.78359558      -0.00000000       0.00172989       0.00068091        0        0       -1       58       26 
Fe       1.41500000      30.22557465     136.89954954      -0.00000000       0.00157668       0.00057026        0        0       -1       58       26 
Fe      -0.00000000      31.06887967     138.71328072      -0.00000000       0.00281140       0.00033692        0        0       -1       58       26 
Fe       1.41500000      32.87090400     137.83413784      -0.00000000      -0.00008516      -0.00123841        0        0       -1       58       26 
Fe      16.98000000      33.71393479     139.65266163      -0.00000000       0.00270606       0.00028789       -1        0       -1       58       26 
Fe       1.41500000      35.51453735     138.77987705       0.00000000       0.00022689      -0.00134841        0        0       -1       58       26 
Fe      -0.00000000      36.36107540     140.60103375      -0.00000000       0.00079149      -0.00085496        0        0       -1       58       26 
Fe       1.41500000      38.16180079     139.73570849      -0.00000000      -0.00029499      -0.00075454        0        0       -1       58       26 
Fe      -0.00000000      39.01299096     141.55765149      -0.00000000       0.00110806       0.00027936        0        0       -1       58       26 
Fe       1.41500000      40.81665492     140.70175969      -0.00000000      -0.00176042      -0.00302624        0        0       -1       58       26 
Fe      -0.00000000      41.67187490     142.52245699      -0.00000000      -0.00039736       0.00063473        0        0       -1       58       26 
Fe      -0.00000000       0.80157471     130.86713920      -0.00000000       0.00067694      -0.00188114        0        0       -1       58       26 
Fe       1.41500000       2.64056986     130.12238089      -0.00000000       0.00004155       0.00261601        0        0       -1       55       26 
Fe      -0.00000000       3.45835179     131.95269233      -0.00000000       0.00008803      -0.00036989        0        0       -1       58       26 
Fe       1.41500000       5.30135373     131.17921020      -0.00000000      -0.00211009       0.00036217        0        0       -1       58       26 
Fe      -0.00000000       6.13087210     132.96980863      -0.00000000      -0.00041702       0.00076406        0        0       -1       58       26 
Fe       1.41500000       7.93343725     132.11756636      -0.00000000      -0.00009519       0.00172124        0        0       -1       58       26 
Fe      -0.00000000       8.79090288     133.92748722      -0.00000000      -0.00050753       0.00159757        0        0       -1       58       26 
Fe       1.41500000      10.61163996     133.10812268      -0.00000000       0.00043517       0.00018409        0        0       -1       58       26 
Fe      -0.00000000      11.47143740     134.90272727      -0.00000000      -0.00079590      -0.00062635        0        0       -1       58       26 
Fe       1.41500000      13.29656959     134.07391197      -0.00000000       0.00037848      -0.00080161        0        0       -1       58       26 
Fe      -0.00000000      14.15368950     135.85900447      -0.00000000      -0.00056276      -0.00098366        0        0       -1       58       26 
Fe       1.41500000      15.97225795     135.00452149      -0.00000000      -0.00061547      -0.00150176        0        0       -1       58       26 
Fe      -0.00000000      16.82743130     136.79049344      -0.00000000       0.00147547      -0.00128969        0        0       -1       58       26 
Fe       1.41500000      18.63923678     135.91833918      -0.00000000       0.00151830       0.00088151        0        0       -1       58       26 
Fe      -0.00000000      19.49386641     137.70959274      -0.00000000       0.00214804       0.00027642        0        0       -1       58       26 
Fe       1.41500000      21.30337523     136.83198386      -0.00000000       0.00208493       0.00040010        0        0       -1       58       26 
Fe      -0.00000000      22.15569040     138.62813981      -0.00000000       0.00192777       0.00002549        0        0       -1       58       26 
Fe       1.41500000      23.96330902     137.74759033      -0.00000000       0.00081625       0.00015241        0        0       -1       58       26 
Fe      -0.00000000      24.81232634     139.54940617      -0.00000000       0.00014318      -0.00035433        0        0       -1       58       26 
Fe       1.41500000      26.61772907     138.66775817      -0.00000000       0.00157980      -0.00006967        0        0       -1       58       26 
Fe      -0.00000000      27.46357342     140.47471133      -0.00000000       0.00115488       0.00005928        0        0       -1       58       26 
Fe       1.41500000      29.26658719     139.59374995      -0.00000000       0.00186543       0.00137255        0        0       -1       58       26 
Fe      -0.00000000      30.11157209     141.40533213      -0.00000000       0.00153891       0.00092428        0        0       -1       58       26 
Fe       1.41500000      31.91309215     140.52806867      -0.00000000       0.00109769       0.00128483        0        0       -1       58       26 
Fe      -0.00000000      32.75950221     142.34282533      -0.00000000       0.00126254       0.00132583        0        0       -1       58       26 
Fe       1.41500000      34.56044471     141.47049732      -0.00000000       0.00067692      -0.00003784        0        0       -1       58       26 
Fe      -0.00000000      35.40953320     143.28717778      -0.00000000       0.00042553       0.00051083        0        0       -1       58       26 
Fe       1.41500000      37.21100837     142.42026026      -0.00000000       0.00081793       0.00063585        0        0       -1       58       26 
Fe      -0.00000000      38.06317237     144.23792344      -0.00000000       0.00012061      -0.00074363        0        0       -1       58       26 
Fe       1.41500000      39.86669076     143.37724080      -0.00000000      -0.00029027      -0.00087203        0        0       -1       58       26 
Fe      -0.00000000      40.72133212     145.19468928      -0.00000000       0.00075658       0.00030108        0        0       -1       58       26 
Fe       1.41500000       1.62567917     132.72026096      -0.00000000      -0.00179046      -0.00273253        0        0       -1       58       26 
Fe      -0.00000000       2.47016634     134.55484152      -0.00000000       0.00067401      -0.00073634        0        0       -1       58       26 
Fe       1.41500000       4.29945603     133.76586476      -0.00000000      -0.00154979      -0.00061219        0        0       -1       58       26 
Fe      -0.00000000       5.14942279     135.57486443      -0.00000000       0.00018597       0.00200069        0        0       -1       58       26 
Fe       1.41500000       6.97681844     134.76530276      -0.00000000       0.00064495       0.00050212        0        0       -1       58       26 
Fe      -0.00000000       7.82968769     136.56335870      -0.00000000       0.00008689       0.00072126        0        0       -1       58       26 
Fe       1.41500000       9.64898374     135.73011894      -0.00000000       0.00001896      -0.00111297        0        0       -1       58       26 
Fe      -0.00000000      10.50672551     137.52943336      -0.00000000       0.00125530       0.00064586        0        0       -1       58       26 
Fe       1.41500000      12.32973698     136.69637854      -0.00000000       0.00043548      -0.00043231        0        0       -1       58       26 
Fe      -0.00000000      13.18647387     138.49037019      -0.00000000      -0.00009967       0.00015297        0        0       -1       58       26 
Fe       1.41500000      15.00911877     137.64727994      -0.00000000       0.00004500      -0.00083732        0        0       -1       58       26 
Fe      -0.00000000      15.86294438     139.43832122      -0.00000000       0.00062515      -0.00174591        0        0       -1       58       26 
Fe       1.41500000      17.68096863     138.57982764      -0.00000000       0.00035517       0.00026014        0        0       -1       58       26 
Fe      -0.00000000      18.53242216     140.37250951      -0.00000000       0.00025774       0.00035357        0        0       -1       58       26 
Fe       1.41500000      20.34572314     139.50367979      -0.00000000       0.00036815       0.00038662        0        0       -1       58       26 
Fe      -0.00000000      21.19479262     141.30070306      -0.00000000       0.00101162       0.00135001        0        0       -1       58       26 
Fe       1.41500000      23.00469704     140.42736655      -0.00000000       0.00195248      -0.00021474        0        0       -1       58       26 
Fe      -0.00000000      23.85181695     142.22910039      -0.00000000       0.00101315       0.00057463        0        0       -1       58       26 
Fe       1.41500000      25.65878672     141.35373528      -0.00000000       0.00154093      -0.00110374        0        0       -1       58       26 
Fe      -0.00000000      26.50502895     143.15952496      -0.00000000       0.00084876      -0.00065703        0        0       -1       58       26 
Fe       1.41500000      28.30915216     142.28320614      -0.00000000       0.00144125      -0.00026371        0        0       -1       58       26 
Fe      -0.00000000      29.15591459     144.09236696      -0.00000000       0.00052982       0.00018022        0        0       -1       58       26 
Fe       1.41500000      30.95814830     143.21726666      -0.00000000       0.00128750       0.00075078        0        0       -1       58       26 
Fe      -0.00000000      31.80643348     145.02914261      -0.00000000       0.00027921       0.00097101        0        0       -1       58       26 
Fe       1.41500000      33.60808636     144.15713241      -0.00000000       0.00088944       0.00071408        0        0       -1       58       26 
Fe      -0.00000000      34.45829063     145.97079365      -0.00000000       0.00018554       0.00137394        0        0       -1       58       26 
Fe       1.41500000      36.26047762     145.10275019      -0.00000000       0.00101854       0.00095002        0        0       -1       58       26 
Fe      -0.00000000      37.11273168     146.91746161      -0.00000000       0.00061453       0.00078868        0        0       -1       58       26 
Fe       1.41500000      38.91641926     146.05401093      -0.00000000       0.00135126       0.00067682        0        0       -1       58       26 
Fe      -0.00000000      39.77067635     147.86893670      -0.00000000       0.00172433       0.00145297        0        0       -1       58       26 
Fe       1.41500000      41.57660211     147.01057169      -0.00000000       0.00210784       0.00057925        0        0       -1       58       26 
Fe       1.41500000       0.65318322     135.36444909      -0.00000000      -0.00042681       0.00129817        0        0       -1       58       26 
Fe      -0.00000000       1.50617750     137.19537858      -0.00000000      -0.00182629      -0.00295099        0        0       -1       58       26 
Fe       1.41500000       3.32357755     136.37866885      -0.00000000      -0.00108867      -0.00152408        0        0       -1       58       26 
Fe      -0.00000000       4.18049785     138.19615417      -0.00000000      -0.00051195       0.00059972        0        0       -1       58       26 
Fe       1.41500000       6.00446283     137.38201089      -0.00000000      -0.00085726      -0.00194242        0        0       -1       58       26 
Fe      -0.00000000       6.86131913     139.18765941      -0.00000000      -0.00033788       0.00136669        0        0       -1       58       26 
Fe       1.41500000       8.68533277     138.36299949      -0.00000000      -0.00016379      -0.00093110        0        0       -1       58       26 
Fe      -0.00000000       9.54149611     140.16343197      -0.00000000       0.00070132      -0.00068476        0        0       -1       58       26 
Fe       1.41500000      11.36360081     139.32806106      -0.00000000       0.00126012      -0.00107559        0        0       -1       58       26 
Fe      -0.00000000      12.21945638     141.12671801      -0.00000000       0.00009013      -0.00104082        0        0       -1       58       26 
Fe       1.41500000      14.04154763     140.28555468      -0.00000000      -0.00001536      -0.00188574        0        0       -1       58       26 
Fe      -0.00000000      14.89503609     142.08189632      -0.00000000       0.00064750       0.00034948        0        0       -1       58       26 
Fe       1.41500000      16.71508132     141.23180012      -0.00000000       0.00150068      -0.00007850        0        0       -1       58       26 
Fe      -0.00000000      17.56568750     143.02793821      -0.00000000       0.00155337       0.00065732        0        0       -1       58       26 
Fe       1.41500000      19.38195946     142.16821503      -0.00000000       0.00014286       0.00126055        0        0       -1       58       26 
Fe      -0.00000000      20.23025874     143.96666227      -0.00000000       0.00045492       0.00060721        0        0       -1       58       26 
Fe       1.41500000      22.04235610     143.10038993      -0.00000000       0.00145798       0.00151375        0        0       -1       58       26 
Fe      -0.00000000      22.88968004     144.90212555      -0.00000000       0.00104414       0.00122917        0        0       -1       58       26 
Fe       1.41500000      24.69861862     144.03265610      -0.00000000       0.00016227       0.00093475        0        0       -1       58       26 
Fe      -0.00000000      25.54579070     145.83752689      -0.00000000       0.00012288       0.00036765        0        0       -1       58       26 
Fe       1.41500000      27.35196333     144.96619982      -0.00000000      -0.00003601       0.00074736        0        0       -1       58       26 
Fe      -0.00000000      28.19968672     146.77365614      -0.00000000      -0.00006360       0.00051521        0        0       -1       58       26 
Fe       1.41500000      30.00386433     145.90184779      -0.00000000      -0.00018313       0.00102688        0        0       -1       58       26 
Fe      -0.00000000      30.85269342     147.71161012      -0.00000000       0.00055405       0.00079556        0        0       -1       58       26 
Fe       1.41500000      32.65589166     146.84085339      -0.00000000       0.00023879       0.00142495        0        0       -1       58       26 
Fe      -0.00000000      33.50637938     148.65240162      -0.00000000       0.00117778       0.00065046        0        0       -1       58       26 
Fe       1.41500000      35.30957355     147.78392565      -0.00000000       0.00059011       0.00128081        0        0       -1       58       26 
Fe      -0.00000000      36.16199518     149.59648812      -0.00000000       0.00174991       0.00099212        0        0       -1       58       26 
Fe       1.41500000      37.96602109     148.73123109      -0.00000000       0.00118853       0.00149398        0        0       -1       58       26 
Fe      -0.00000000      38.82043200     150.54420269      -0.00000000       0.00166815       0.00127919        0        0       -1       58       26 
Fe       1.41500000      40.62592790     149.68291007      -0.00000000       0.00089201       0.00040885        0        0       -1       58       26 
Fe      -0.00000000      41.48171687     151.49595462      -0.00000000       0.00123635       0.00103209        0        0       -1       58       26 
Fe      -0.00000000       0.55184709     139.85448039      -0.00000000      -0.00060477      -0.00071546        0        0       -1       58       26 
Fe       1.41500000       2.36282593     139.01904337      -0.00000000       0.00035899      -0.00082345        0        0       -1       58       26 
Fe      -0.00000000       3.22103396     140.83807463      -0.00000000       0.00098924       0.00060416        0        0       -1       58       26 
Fe       1.41500000       5.03874584     140.01009935      -0.00000000      -0.00029750      -0.00081576        0        0       -1       58       26 
Fe      -0.00000000       5.89709020     141.82156117      -0.00000000       0.00044571      -0.00027644        0        0       -1       58       26 
Fe       1.41500000       7.71860244     140.99318413      -0.00000000      -0.00065265       0.00068632        0        0       -1       58       26 
Fe      -0.00000000       8.57551736     142.79872595      -0.00000000      -0.00001289      -0.00160240        0        0       -1       58       26 
Fe       1.41500000      10.39751614     141.96450630      -0.00000000       0.00030960       0.00083690        0        0       -1       58       26 
Fe      -0.00000000      11.25272875     143.76663164      -0.00000000       0.00019168      -0.00095630        0        0       -1       58       26 
Fe       1.41500000      13.07396536     142.92602315      -0.00000000      -0.00008511       0.00073239        0        0       -1       58       26 
Fe      -0.00000000      13.92724862     144.72652503      -0.00000000      -0.00004548       0.00024392        0        0       -1       58       26 
Fe       1.41500000      15.74706928     143.88009885      -0.00000000       0.00067344      -0.00033168        0        0       -1       58       26 
Fe      -0.00000000      16.59803083     145.67993158      -0.00000000       0.00081941       0.00017296        0        0       -1       58       26 
Fe       1.41500000      18.41527774     144.82656324      -0.00000000       0.00043795      -0.00074468        0        0       -1       58       26 
Fe      16.98000000      19.26441028     146.62687535      -0.00000000       0.00078660       0.00103102       -1        0       -1       58       26 
Fe       1.41500000      21.07824163     145.76713637      -0.00000000       0.00128532       0.00104468        0        0       -1       58       26 
Fe      -0.00000000      21.92648795     147.56927026      -0.00000000       0.00100432       0.00185672        0        0       -1       58       26 
Fe       1.41500000      23.73729513     146.70541067      -0.00000000       0.00043805       0.00067098        0        0       -1       58       26 
Fe      -0.00000000      24.58533446     148.50983887      -0.00000000       0.00062689       0.00128341        0        0       -1       58       26 
Fe       1.41500000      26.39354089     147.64328877      -0.00000000       0.00040617       0.00047514        0        0       -1       58       26 
Fe      -0.00000000      27.24200672     149.44977025      -0.00000000       0.00081635       0.00062800        0        0       -1       58       26 
Fe       1.41500000      29.04818542     148.58165289      -0.00000000       0.00054530       0.00010089        0        0       -1       58       26 
Fe      -0.00000000      29.89780055     150.38986450      -0.00000000       0.00151982       0.00074941        0        0       -1       58       26 
Fe       1.41500000      31.70262344     149.52147402      -0.00000000       0.00133299       0.00017722        0        0       -1       58       26 
Fe      -0.00000000      32.55406412     151.33113005      -0.00000000       0.00160798       0.00051034        0        0       -1       58       26 
Fe       1.41500000      34.35823106     150.46359339      -0.00000000       0.00161353       0.00007285        0        0       -1       58       26 
Fe      -0.00000000      35.21158535     152.27424956      -0.00000000       0.00172895       0.00090978        0        0       -1       58       26 
Fe       1.41500000      37.01585302     151.40840095      -0.00000000       0.00170132       0.00080023        0        0       -1       58       26 
Fe      -0.00000000      37.87070202     153.21984842      -0.00000000       0.00143761       0.00111696        0        0       -1       58       26 
Fe       1.41500000      39.67572301     152.35656918      -0.00000000       0.00146349       0.00115013        0        0       -1       58       26 
Fe      -0.00000000      40.53150389     154.16852748      -0.00000000       0.00172224       0.00181007        0        0       -1       58       26 
Fe       1.41500000       1.40897071     141.67588173      -0.00000000      -0.00090108      -0.00271056        0        0       -1       58       26 
Fe      -0.00000000       2.26655242     143.49373465      -0.00000000      -0.00032844       0.00023018        0        0       -1       58       26 
Fe       1.41500000       4.07964609     142.65428736      -0.00000000      -0.00002000      -0.00236105        0        0       -1       58       26 
Fe      -0.00000000       4.93780027     144.46799625      -0.00000000       0.00012989      -0.00133236        0        0       -1       58       26 
Fe       1.41500000       6.75497709     143.63164391      -0.00000000       0.00091667       0.00032972        0        0       -1       58       26 
Fe      -0.00000000       7.61228153     145.44101829      -0.00000000       0.00004509      -0.00102104        0        0       -1       58       26 
Fe       1.41500000       9.43168529     144.60402640      -0.00000000       0.00104176       0.00033750        0        0       -1       58       26 
Fe      -0.00000000      10.28723615     146.40965329      -0.00000000       0.00097691       0.00124957        0        0       -1       58       26 