1920
Lattice="16.98 0.0 0.0 0.0 17.89849156 0.0 0.0 0.0 72.16998181" Properties=species:S:1:pos:R:3:force:R:3:map_shift:I:3:n_neighb:I:1:Z:I:1 nneightol=1.2 virial="-57.6313204 -9.166e-05 -2e-05 -9.166e-05 -69.91456211 0.00866532 -2e-05 0.00866532 16.84928661" energy=-7666.00665859 cutoff=5.3 pbc="T T T"
Fe       0.14497212       0.09026698      53.67644994       0.00033515       0.00002972      -0.00004121        0        0       -1       58       26 
Fe       0.14259966       2.68338585      54.81710755      -0.00007226       0.00009793      -0.00078088        0        0       -1       54       26 
Fe       1.55997212       4.56488987      53.67644994       0.00033515       0.00002971      -0.00004121        0        0       -1       58       26 
Fe       0.14284125       5.33075879      55.58822581       0.00010683      -0.00113264       0.00061999        0        0       -1       56       26 
Fe       1.55759966       7.15800874      54.81710755      -0.00007226       0.00009793      -0.00078085        0        0       -1       54       26 
Fe       0.14220465       8.06891449      56.52888827       0.00010591       0.00145866       0.00003621        0        0       -1       55       26 
Fe       1.55784125       0.85613590      55.58822581       0.00010683      -0.00113265       0.00061997        0        0       -1       56       26 
Fe       0.14193289       1.78259709      57.39498317      -0.00014100      -0.00154920       0.00068113        0        0       -1       57       26 
Fe       1.55720465       3.59429160      56.52888827       0.00010591       0.00145869       0.00003625        0        0       -1       55       26 
Fe       0.14150958       4.47744011      58.30865724      -0.00001086       0.00142174      -0.00113156        0        0       -1       58       26 
Fe       1.55693289       6.25721998      57.39498317      -0.00014100      -0.00154922       0.00068109        0        0       -1       57       26 
Fe       0.14113321       7.15656087      59.19102929       0.00006389      -0.00200575       0.00087220        0        0       -1       58       26 
Fe       1.55650958       0.00281722      58.30865724      -0.00001086       0.00142177      -0.00113151        0        0       -1       58       26 
Fe       0.14076643       0.89588244      60.09270568       0.00005515       0.00188919      -0.00073143        0        0       -1       58       26 
Fe       1.55613321       2.68193798      59.19102929       0.00006389      -0.00200577       0.00087215        0        0       -1       58       26 
Fe       0.14038379       3.57845724      60.98299774       0.00026035      -0.00206280       0.00121280        0        0       -1       58       26 
Fe       1.55576643       5.37050533      60.09270567       0.00005515       0.00188922      -0.00073137        0        0       -1       58       26 
Fe       0.14004684       6.26450685      61.88006476       0.00008649       0.00218585      -0.00112886        0        0       -1       58       26 
Fe       1.55538379       8.05308013      60.98299774       0.00026035      -0.00206283       0.00121274        0        0       -1       58       26 
Fe       1.55504684       1.78988396      61.88006475       0.00008649       0.00218588      -0.00112880        0        0       -1       58       26 
Fe       0.13969968      -0.00054615      62.77301288       0.00028438      -0.00225242       0.00129000        0        0       -1       58       26 
Fe       0.13938392       2.68455135      63.66850805       0.00030631       0.00248699      -0.00106942        0        0       -1       58       26 
Fe       1.55469968       4.47407674      62.77301288       0.00028438      -0.00225246       0.00128992        0        0       -1       58       26 
Fe       0.13911158       5.36931048      64.56240718       0.00013415      -0.00259681       0.00131480        0        0       -1       58       26 
Fe       1.55438392       7.15917424      63.66850804       0.00030631       0.00248703      -0.00106934        0        0       -1       58       26 
Fe       0.13883155       8.05406917      65.45736783       0.00028981       0.00253227      -0.00133522        0        0       -1       58       26 
Fe       1.55411158       0.89468759      64.56240718       0.00013415      -0.00259685       0.00131472        0        0       -1       58       26 
Fe       0.13858837       1.78975855      66.35157105       0.00036001      -0.00262956       0.00138734        0        0       -1       58       26 
Fe       1.55383155       3.57944627      65.45736782       0.00028981       0.00253231      -0.00133514        0        0       -1       58       26 
Fe       0.13838249       4.47439714      67.24636834       0.00028570       0.00252819      -0.00149724        0        0       -1       58       26 
Fe       1.55358837       6.26438144      66.35157106       0.00036001      -0.00262960       0.00138725        0        0       -1       58       26 
Fe       0.13819997       7.15938994      68.14066251       0.00031568      -0.00253869       0.00152230        0        0       -1       58       26 
Fe       1.55338249      17.89826580      67.24636834       0.00028570       0.00252823      -0.00149715        0       -1       -1       58       26 
Fe       0.13804559       0.89473800      69.03537729       0.00039943       0.00237893      -0.00102651        0        0       -1       58       26 
Fe       1.55319997       2.68476706      68.14066251       0.00031568      -0.00253873       0.00152221        0        0       -1       58       26 
Fe       0.13793270       3.57971963      69.92978765       0.00044106      -0.00191425       0.00098679        0        0       -1       58       26 
Fe       1.55304559       5.36936089      69.03537728       0.00039943       0.00237897      -0.00102641        0        0       -1       58       26 
Fe       0.13785771       6.26437608      70.82441891       0.00050747       0.00156705      -0.00078126        0        0       -1       58       26 
Fe       1.55293270       8.05434252      69.92978766       0.00044106      -0.00191430       0.00098670        0        0       -1       58       26 
Fe       1.55285771       1.78975318      70.82441891       0.00050747       0.00156710      -0.00078116        0        0       -1       58       26 
Fe       0.13783769       0.00006135      71.71888886       0.00048133      -0.00133007       0.00067350        0        0       -1       58       26 
Fe       0.14752577       2.68337584      52.53579417      -0.00004309       0.00010261       0.00063694        0        0       -1       54       26 
Fe       1.55283769       4.47468424      71.71888886       0.00048133      -0.00133012       0.00067341        0        0       -1       58       26 
Fe       0.14725962       5.33075186      51.76464554      -0.00008677      -0.00078618      -0.00029277        0        0       -1       56       26 
Fe       1.56252577       7.15799873      52.53579417      -0.00004309       0.00010262       0.00063690        0        0       -1       54       26 
Fe       0.14793430       8.06896794      50.82402177      -0.00011904       0.00076448      -0.00034453        0        0       -1       55       26 
Fe       1.56225962       0.85612898      51.76464554      -0.00008677      -0.00078619      -0.00029274        0        0       -1       56       26 
Fe       0.14823377       1.78258741      49.95789727      -0.00008206      -0.00065524      -0.00042836        0        0       -1       57       26 
Fe       1.56293430       3.59434505      50.82402177      -0.00011905       0.00076451      -0.00034458        0        0       -1       55       26 
Fe       0.14864906       4.47753354      49.04425276      -0.00006910       0.00036749       0.00059713        0        0       -1       58       26 
Fe       1.56323377       6.25721030      49.95789726      -0.00008206      -0.00065526      -0.00042831        0        0       -1       57       26 
Fe       0.14902231       7.15655409      48.16183115      -0.00018959      -0.00095155      -0.00023815        0        0       -1       58       26 
Fe       1.56364906       0.00291064      49.04425277      -0.00006910       0.00036752       0.00059706        0        0       -1       58       26 
Fe       0.14937033       0.89598671      47.26018950      -0.00012247       0.00052704       0.00020082        0        0       -1       58       26 
Fe       1.56402231       2.68193120      48.16183115      -0.00018959      -0.00095158      -0.00023808        0        0       -1       58       26 
Fe       0.14971700       3.57841113      46.36985031      -0.00012264      -0.00042848      -0.00053245        0        0       -1       58       26 
Fe       1.56437033       5.37060960      47.26018950      -0.00012247       0.00052707       0.00020075        0        0       -1       58       26 
Fe       0.15005113       6.26462262      45.47284177      -0.00006412       0.00050011       0.00028077        0        0       -1       58       26 
Fe       1.56471700       8.05303402      46.36985030      -0.00012264      -0.00042851      -0.00053237        0        0       -1       58       26 
Fe       1.56505113       1.78999973      45.47284177      -0.00006413       0.00050015       0.00028069        0        0       -1       58       26 
Fe       0.15038033      -0.00059122      44.57981332      -0.00016980      -0.00036591      -0.00036842        0        0       -1       58       26 
Fe       0.15070024       2.68469944      43.68441265      -0.00025341       0.00048696      -0.00006396        0        0       -1       58       26 
Fe       1.56538033       4.47403168      44.57981332      -0.00016980      -0.00036595      -0.00036833        0        0       -1       58       26 
Fe       0.15098140       5.36927684      42.79040523      -0.00017992      -0.00060197      -0.00020167        0        0       -1       58       26 
Fe       1.56570024       7.15932232      43.68441265      -0.00025341       0.00048701      -0.00006406        0        0       -1       58       26 
Fe       0.15125978       8.05422952      41.89553138      -0.00033962       0.00013950       0.00041517        0        0       -1       58       26 
Fe       1.56598140       0.89465396      42.79040523      -0.00017992      -0.00060202      -0.00020157        0        0       -1       58       26 
Fe       0.15150600       1.78967837      41.00122696      -0.00053349      -0.00025648      -0.00013291        0        0       -1       58       26 
Fe       1.56625978       3.57960663      41.89553139      -0.00033961       0.00013955       0.00041506        0        0       -1       58       26 
Fe       0.15168790       4.47451690      40.10654456      -0.00040847       0.00019420       0.00025121        0        0       -1       58       26 
Fe       1.56650600       6.26430126      41.00122695      -0.00053349      -0.00025653      -0.00013280        0        0       -1       58       26 
Fe       0.15183886       7.15927489      39.21213202      -0.00041978       0.00008591      -0.00018373        0        0       -1       58       26 
Fe       1.56668790      17.89838557      40.10654457      -0.00040848       0.00019425       0.00025110        0       -1       -1       58       26 
Fe       0.15195253       0.89487429      38.31755526      -0.00046568      -0.00028427      -0.00044147        0        0       -1       58       26 
Fe       1.56683886       2.68465200      39.21213201      -0.00041978       0.00008585      -0.00018361        0        0       -1       58       26 
Fe       0.15200963       3.57960790      37.42302769      -0.00029901       0.00072542       0.00009358        0        0       -1       58       26 
Fe       1.56695253       5.36949717      38.31755527      -0.00046568      -0.00028421      -0.00044159        0        0       -1       58       26 
Fe       0.15205000       6.26449927      36.52849619      -0.00027987      -0.00103696      -0.00056424        0        0       -1       58       26 
Fe       1.56700963       8.05423079      37.42302768      -0.00029901       0.00072536       0.00009370        0        0       -1       58       26 
Fe       1.56705000       1.78987638      36.52849620      -0.00027987      -0.00103690      -0.00056436        0        0       -1       58       26 
Fe       0.14497190      -0.09026500      17.59140150       0.00033603      -0.00003046       0.00011259        0        0        0       58       26 
Fe       0.14752520       6.26587464      18.73207080      -0.00003843      -0.00023939      -0.00074556        0        0        0       54       26 
Fe       1.55997190       4.38435789      17.59140150       0.00033603      -0.00003046       0.00011259        0        0        0       58       26 
Fe       0.14726015       3.61847865      19.50319737      -0.00009066       0.00118312       0.00051879        0        0        0       56       26 
Fe       1.56252520       1.79125175      18.73207080      -0.00003843      -0.00023938      -0.00074560        0        0        0       54       26 
Fe       0.14793443       0.88030871      20.44385256      -0.00011788      -0.00140276       0.00003052        0        0        0       55       26 
Fe       1.56226015       8.09310154      19.50319737      -0.00009066       0.00118311       0.00051882        0        0        0       56       26 
Fe       0.14823469       7.16662294      21.30993903      -0.00008604       0.00146637       0.00082465        0        0        0       57       26 
Fe       1.56293443       5.35493160      20.44385256      -0.00011788      -0.00140273       0.00003047        0        0        0       55       26 
Fe       0.14864942       4.47175876      22.22362595      -0.00006820      -0.00135375      -0.00106519        0        0        0       58       26 
Fe       1.56323469       2.69200005      21.30993903      -0.00008604       0.00146635       0.00082469        0        0        0       57       26 
Fe       0.14902292       1.79263882      23.10599846      -0.00018960       0.00210060       0.00081905        0        0        0       58       26 
Fe       1.56364942      -0.00286413      22.22362595      -0.00006820      -0.00135372      -0.00106525        0        0        0       58       26 
Fe       0.14937092       8.05332000      24.00769914      -0.00012514      -0.00184337      -0.00089282        0        0        0       58       26 
Fe       1.56402292       6.26726171      23.10599846      -0.00018960       0.00210057       0.00081912        0        0        0       58       26 
Fe       0.14971684       5.37076311      24.89797185      -0.00011547       0.00196053       0.00126708        0        0        0       58       26 
Fe       1.56437092       3.57869711      24.00769915      -0.00012514      -0.00184333      -0.00089290        0        0        0       58       26 
Fe       0.15005190       2.68470445      25.79505370      -0.00006917      -0.00222754      -0.00109973        0        0        0       58       26 
Fe       1.56471684       0.89614022      24.89797184      -0.00011547       0.00196049       0.00126716        0        0        0       58       26 
Fe       1.56505190       7.15932733      25.79505370      -0.00006917      -0.00222750      -0.00109981        0        0        0       58       26 
Fe       0.15038109       0.00050727      26.68799763      -0.00017307       0.00218979       0.00131530        0        0        0       58       26 
Fe       0.15070011       6.26463482      27.58349284      -0.00024778      -0.00242569      -0.00097190        0        0        0       58       26 
Fe       1.56538109       4.47513017      26.68799763      -0.00017307       0.00218975       0.00131539        0        0        0       58       26 
Fe       0.15098176       3.57987087      28.47740202      -0.00017908       0.00272886       0.00123620        0        0        0       58       26 
Fe       1.56570011       1.79001193      27.58349285      -0.00024778      -0.00242565      -0.00097199        0        0        0       58       26 
Fe       0.15126049       0.89512176      29.37237708      -0.00034454      -0.00241480      -0.00152337        0        0        0       58       26 
Fe       1.56598176       8.05449376      28.47740201      -0.00017908       0.00272881       0.00123630        0        0        0       58       26 
Fe       0.15150632       7.15945852      30.26657003      -0.00053390       0.00260842       0.00135446        0        0        0       58       26 
Fe       1.56626049       5.36974465      29.37237709      -0.00034454      -0.00241475      -0.00152347        0        0        0       58       26 
Fe       0.15168791       4.47483955      31.16137045      -0.00040589      -0.00262330      -0.00151300        0        0        0       58       26 
Fe       1.56650632       2.68483564      30.26657003      -0.00053390       0.00260837       0.00135457        0        0        0       58       26 
Fe       0.15183871       1.78985335      32.05566257      -0.00041652       0.00243012       0.00145561        0        0        0       58       26 
Fe       1.56668791       0.00021666      31.16137046      -0.00040589      -0.00262325      -0.00151311        0        0        0       58       26 
Fe       0.15195312       8.05448860      32.95035975      -0.00047173      -0.00229788      -0.00084912        0        0        0       58       26 
Fe       1.56683871       6.26447624      32.05566257      -0.00041652       0.00243006       0.00145572        0        0        0       58       26 
Fe       0.15200962       5.36951426      33.84476517      -0.00029895       0.00190132       0.00120503        0        0        0       58       26 
Fe       1.56695312       3.57986570      32.95035975      -0.00047173      -0.00229782      -0.00084923        0        0        0       58       26 
Fe       0.15204954       2.68486499      34.73942050      -0.00027409      -0.00158082      -0.00076605        0        0        0       58       26 
Fe       1.56700962       0.89489138      33.84476517      -0.00029895       0.00190127       0.00120515        0        0        0       58       26 
Fe       1.56704954       7.15948787      34.73942051      -0.00027409      -0.00158076      -0.00076617        0        0        0       58       26 
Fe       0.15205556      -0.00006045      35.63389395      -0.00021910       0.00129843       0.00068996        0        0        0       58       26 
Fe       0.14259931       6.26585822      16.45075833      -0.00007134       0.00004836       0.00066857        0        0        0       54       26 
Fe       1.56705556       4.47456244      35.63389394      -0.00021910       0.00129837       0.00069007        0        0        0       58       26 
Fe       0.14284117       3.61850647      15.67961883       0.00010574       0.00071695      -0.00039383        0        0        0       56       26 
Fe       1.55759931       1.79123533      16.45075833      -0.00007134       0.00004837       0.00066861        0        0        0       54       26 
Fe       0.14220420       0.88030278      14.73898886       0.00010804      -0.00080309      -0.00036734        0        0        0       55       26 
Fe       1.55784117       8.09312936      15.67961883       0.00010574       0.00071694      -0.00039385        0        0        0       56       26 
Fe       0.14193311       7.16668783      13.87285450      -0.00014539       0.00071131      -0.00027744        0        0        0       57       26 
Fe       1.55720420       5.35492567      14.73898886       0.00010804      -0.00080307      -0.00036730        0        0        0       55       26 
Fe       0.14150909       4.47176002      12.95922519      -0.00000902      -0.00040923       0.00063622        0        0        0       58       26 
Fe       1.55693311       2.69206494      13.87285450      -0.00014539       0.00071129      -0.00027748        0        0        0       57       26 
Fe       0.14113278       1.79274028      12.07680050       0.00006587       0.00082432      -0.00027024        0        0        0       58       26 
Fe       1.55650909      -0.00286287      12.95922519      -0.00000902      -0.00040920       0.00063628        0        0        0       58       26 
Fe       0.14076643       8.05330137      11.17518537       0.00004919      -0.00053120       0.00003155        0        0        0       58       26 
Fe       1.55613278       6.26736317      12.07680050       0.00006587       0.00082429      -0.00027029        0        0        0       58       26 
Fe       0.14038256       5.37086174      10.28482387       0.00026851       0.00049651      -0.00044693        0        0        0       58       26 
Fe       1.55576643       3.57867847      11.17518536       0.00004919      -0.00053117       0.00003161        0        0        0       58       26 
Fe       0.14004669       2.68465611       9.38783401       0.00008086      -0.00042658       0.00027713        0        0        0       58       26 
Fe       1.55538256       0.89623885      10.28482387       0.00026851       0.00049647      -0.00044699        0        0        0       58       26 
Fe       1.55504669       7.15927899       9.38783400       0.00008086      -0.00042655       0.00027720        0        0        0       58       26 
Fe       0.13969910       0.00063128       8.49479915       0.00028492       0.00038277      -0.00033150        0        0        0       58       26 
Fe       0.13938290       6.26460177       7.59939929       0.00031274      -0.00049670       0.00002801        0        0        0       58       26 
Fe       1.55469910       4.47525417       8.49479915       0.00028492       0.00038273      -0.00033157        0        0        0       58       26 
Fe       0.13911128       3.58003323       6.70540075       0.00013520       0.00044005      -0.00023950        0        0        0       58       26 
Fe       1.55438290       1.78997888       7.59939928       0.00031273      -0.00049666       0.00002809        0        0        0       58       26 
Fe       0.13883195       0.89506766       5.81054327       0.00028374      -0.00021811       0.00020661        0        0        0       58       26 
Fe       1.55411128       8.05465612       6.70540076       0.00013520       0.00044001      -0.00023958        0        0        0       58       26 
Fe       0.13858876       7.15959807       4.91623015       0.00035560       0.00021932      -0.00016425        0        0        0       58       26 
Fe       1.55383195       5.36969055       5.81054327       0.00028374      -0.00021807       0.00020669        0        0        0       58       26 
Fe       0.13838217       4.47473337       4.02155030       0.00028787      -0.00003990       0.00020826        0        0        0       58       26 
Fe       1.55358876       2.68497518       4.91623016       0.00035561       0.00021928      -0.00016434        0        0        0       58       26 
Fe       0.13819944       1.78997562       3.12713559       0.00031893      -0.00004942      -0.00022844        0        0        0       58       26 
Fe       1.55338217       0.00011048       4.02155030       0.00028787      -0.00003986       0.00020835        0        0        0       58       26 
Fe       0.13804528       8.05438444       2.23254241       0.00039843       0.00026702      -0.00028774        0        0        0       58       26 
Fe       1.55319944       6.26459851       3.12713560       0.00031893      -0.00004946      -0.00022853        0        0        0       58       26 
Fe       0.13793232       5.36964853       1.33800824       0.00044169      -0.00073904       0.00036057        0        0        0       58       26 
Fe       1.55304528       3.57976155       2.23254241       0.00039843       0.00026706      -0.00028765        0        0        0       58       26 
Fe       0.13785725       2.68474696       0.44350203       0.00051058       0.00108780      -0.00056868        0        0        0       58       26 
Fe       1.55293232       0.89502564       1.33800825       0.00044169      -0.00073909       0.00036048        0        0        0       58       26 
Fe       1.55285725       7.15936985       0.44350203       0.00051058       0.00108784      -0.00056859        0        0        0       58       26 
Fe       0.14497212       9.03951276      53.67644994       0.00033515       0.00002972      -0.00004121        0       -1       -1       58       26 
Fe       0.14259966      11.63263163      54.81710755      -0.00007226       0.00009793      -0.00078088        0       -1       -1       54       26 
Fe       1.55997212      13.51413565      53.67644994       0.00033515       0.00002971      -0.00004121        0       -1       -1       58       26 
Fe       0.14284125      14.28000457      55.58822581       0.00010683      -0.00113264       0.00061999        0       -1       -1       56       26 
Fe       1.55759966      16.10725452      54.81710755      -0.00007226       0.00009793      -0.00078085        0       -1       -1       54       26 
Fe       0.14220465      17.01816027      56.52888827       0.00010591       0.00145866       0.00003621        0       -1       -1       55       26 
Fe       1.55784125       9.80538168      55.58822581       0.00010683      -0.00113265       0.00061997        0       -1       -1       56       26 
Fe       0.14193289      10.73184287      57.39498317      -0.00014100      -0.00154920       0.00068113        0       -1       -1       57       26 
Fe       1.55720465      12.54353738      56.52888827       0.00010591       0.00145869       0.00003625        0       -1       -1       55       26 
Fe       0.14150958      13.42668589      58.30865724      -0.00001086       0.00142174      -0.00113156        0       -1       -1       58       26 
Fe       1.55693289      15.20646576      57.39498317      -0.00014100      -0.00154922       0.00068109        0       -1       -1       57       26 
Fe       0.14113321      16.10580665      59.19102929       0.00006389      -0.00200575       0.00087220        0       -1       -1       58       26 
Fe       1.55650958       8.95206300      58.30865724      -0.00001086       0.00142177      -0.00113151        0       -1       -1       58       26 
Fe       0.14076643       9.84512822      60.09270568       0.00005515       0.00188919      -0.00073143        0       -1       -1       58       26 
Fe       1.55613321      11.63118376      59.19102929       0.00006389      -0.00200577       0.00087215        0       -1       -1       58       26 
Fe       0.14038379      12.52770302      60.98299774       0.00026035      -0.00206280       0.00121280        0       -1       -1       58       26 
Fe       1.55576643      14.31975111      60.09270567       0.00005515       0.00188922      -0.00073137        0       -1       -1       58       26 
Fe       0.14004684      15.21375263      61.88006476       0.00008649       0.00218585      -0.00112887        0       -1       -1       58       26 
Fe       1.55538379      17.00232591      60.98299774       0.00026035      -0.00206283       0.00121274        0       -1       -1       58       26 
Fe       1.55504684      10.73912974      61.88006475       0.00008649       0.00218588      -0.00112880        0       -1       -1       58       26 
Fe       0.13969968       8.94869963      62.77301288       0.00028438      -0.00225243       0.00129000        0        0       -1       58       26 
Fe       0.13938392      11.63379713      63.66850805       0.00030632       0.00248699      -0.00106942        0       -1       -1       58       26 
Fe       1.55469968      13.42332252      62.77301288       0.00028438      -0.00225246       0.00128992        0       -1       -1       58       26 
Fe       0.13911158      14.31855626      64.56240718       0.00013415      -0.00259681       0.00131480        0       -1       -1       58       26 
Fe       1.55438392      16.10842002      63.66850804       0.00030632       0.00248703      -0.00106934        0       -1       -1       58       26 
Fe       0.13883155      17.00331495      65.45736783       0.00028981       0.00253227      -0.00133522        0       -1       -1       58       26 
Fe       1.55411158       9.84393337      64.56240718       0.00013415      -0.00259685       0.00131472        0       -1       -1       58       26 
Fe       0.13858837      10.73900433      66.35157105       0.00036001      -0.00262956       0.00138734        0       -1       -1       58       26 
Fe       1.55383155      12.52869205      65.45736782       0.00028981       0.00253231      -0.00133514        0       -1       -1       58       26 
Fe       0.13838249      13.42364292      67.24636834       0.00028570       0.00252819      -0.00149724        0       -1       -1       58       26 
Fe       1.55358837      15.21362722      66.35157106       0.00036001      -0.00262960       0.00138725        0       -1       -1       58       26 
Fe       0.13819997      16.10863572      68.14066251       0.00031568      -0.00253869       0.00152230        0       -1       -1       58       26 
Fe       1.55338249       8.94902002      67.24636834       0.00028570       0.00252823      -0.00149715        0        0       -1       58       26 
Fe       0.13804559       9.84398378      69.03537729       0.00039943       0.00237893      -0.00102651        0       -1       -1       58       26 
Fe       1.55319997      11.63401284      68.14066251       0.00031568      -0.00253873       0.00152221        0       -1       -1       58       26 
Fe       0.13793270      12.52896541      69.92978765       0.00044106      -0.00191426       0.00098679        0       -1       -1       58       26 