26916
Lattice="16.98 0.0 0.0 0.0 94.87888912 0.0 0.0 0.0 189.79566786" Properties=species:S:1:pos:R:3:force:R:3:map_shift:I:3:n_neighb:I:1:Z:I:1 nneightol=1.2 virial="-109.36020074 0.3920631 2.26395236 0.3920631 -232.48128537 89.23751888 2.26395236 89.23751888 313.17711765" energy=-107787.8103763 cutoff=5.3 pbc="T T T"
Fe       0.98703211      18.89187610     141.89413760      -0.00008669      -0.00092754      -0.00058137        0        0       -1       52       26 
Fe      -0.42405928       2.89611260     143.00786656       0.00009519       0.00000193      -0.00036704        0        0       -1       58       26 
Fe      -0.41981259       5.44954131     144.15952791       0.00057768       0.00010064       0.00025724        0        0       -1       55       26 
Fe       0.99065817       7.36655872     143.01592086       0.00039370      -0.00003064      -0.00001311        0        0       -1       58       26 
Fe      -0.42007918       8.08469168     144.93520612       0.00042172       0.00051796      -0.00023843        0        0       -1       56       26 
Fe       0.99563934       9.91204447     144.16469689       0.00032651       0.00009452       0.00098820        0        0       -1       55       26 
Fe      -0.41829321      10.80572893     145.87648914       0.00032759      -0.00034781      -0.00008983        0        0       -1       55       26 
Fe       0.99547441      12.53292691     144.93921309       0.00001433      -0.00005845       0.00021887        0        0       -1       56       26 
Fe      -0.41709417      13.44619898     146.74191677       0.00001478       0.00007739       0.00026210        0        0       -1       57       26 
Fe       0.99731333      15.23808142     145.88165447      -0.00031537      -0.00016760      -0.00017244        0        0       -1       55       26 
Fe      -0.41557926      16.14645224     147.63636679       0.00007741      -0.00008534       0.00022732        0        0       -1       58       26 
Fe       0.99832583      17.90589981     146.71347329      -0.00018959      -0.00010964      -0.00039433        0        0       -1       57       26 
Fe      -0.41417785      18.84810202     148.46273032       0.00000542       0.00005038      -0.00003810        0        0       -1       58       26 
Fe       0.99964594      20.62285284     147.54610713       0.00061744      -0.00036953      -0.00038258        0        0       -1       58       26 
Fe      -0.41280130      21.56046470     149.27509069      -0.00002758      -0.00033755      -0.00028690        0        0       -1       58       26 
Fe       1.00116953      23.30016705     148.29040459      -0.00028879       0.00001581      -0.00049282        0        0       -1       58       26 
Fe      -0.41132434      24.25782943     150.03573666      -0.00068433       0.00023084      -0.00024047        0        0       -1       58       26 
Fe       1.00250915      26.00181807     149.05527866      -0.00060877       0.00009756       0.00008247        0        0       -1       58       26 
Fe      -0.41021533      26.96507482     150.81004706      -0.00008956      -0.00013968       0.00004331        0        0       -1       58       26 
Fe       1.00353340      28.72596888     149.84563838      -0.00051898      -0.00027377       0.00023033        0        0       -1       58       26 
Fe      -0.40920049      29.67593713     151.60631601      -0.00041979       0.00077701      -0.00026229        0        0       -1       58       26 
Fe       1.00450900      31.44446871     150.64859123      -0.00010885      -0.00078812       0.00045245        0        0       -1       58       26 
Fe      -0.40836964      32.37904017     152.41768185      -0.00026163      -0.00052124       0.00014946        0        0       -1       58       26 
Fe       1.00527394      34.14921909     151.46472367      -0.00002934       0.00013530       0.00019632        0        0       -1       58       26 
Fe      -0.40788955      35.07282845     153.24041794      -0.00040519      -0.00121197       0.00031911        0        0       -1       58       26 
Fe       1.00562116      36.83944285     152.28894639       0.00012642      -0.00050688      -0.00021127        0        0       -1       58       26 
Fe      -0.40761962      37.75860320     154.07190845      -0.00086181      -0.00098664       0.00083579        0        0       -1       58       26 
Fe       1.00585156      39.52348229     153.12649265      -0.00057073       0.00133381      -0.00019638        0        0       -1       58       26 
Fe      -0.40759893      40.44217876     154.91437322      -0.00143698      -0.00071533       0.00004364        0        0       -1       58       26 
Fe       1.00562966      42.20798791     153.97936135      -0.00039403       0.00076357      -0.00015362        0        0       -1       58       26 
Fe      -0.40815222      43.12871239     155.76903655      -0.00027782       0.00067369      -0.00002797        0        0       -1       58       26 
Fe       1.00524167      44.89710107     154.84526985       0.00019704       0.00030007      -0.00020674        0        0       -1       58       26 
Fe      -0.40850854      45.82044098     156.63310145      -0.00036228      -0.00070700       0.00030165        0        0       -1       58       26 
Fe       0.99514908       0.97141160     144.15375975       0.00052836      -0.00016929       0.00020359        0        0       -1       54       26 
Fe      -0.41904113       1.87652329     145.86831809       0.00069281      -0.00016492      -0.00023304        0        0       -1       55       26 
Fe       0.99472386       3.61751214     144.93160469       0.00036468       0.00011935      -0.00020405        0        0       -1       56       26 
Fe      -0.41849272       4.53786718     146.73909483       0.00077058       0.00015938      -0.00014990        0        0       -1       57       26 
Fe       0.99606605       6.34935345     145.87242637       0.00072911      -0.00053192      -0.00060521        0        0       -1       55       26 
Fe      -0.41727933       7.22696414     147.65353529       0.00051214       0.00001506       0.00031865        0        0       -1       58       26 
Fe       0.99715009       9.00035133     146.74089283       0.00029886       0.00032981      -0.00025846        0        0       -1       57       26 
Fe      -0.41578682       9.90035800     148.53343085       0.00001961      -0.00067049       0.00052084        0        0       -1       58       26 
Fe       0.99864812      11.68352310     147.65385110      -0.00014102       0.00028558       0.00026077        0        0       -1       58       26 
Fe      -0.41413649      12.59577054     149.42317419      -0.00025039       0.00028801       0.00000990        0        0       -1       58       26 
Fe       1.00015949      14.36637009     148.51939037      -0.00025288      -0.00027785       0.00011956        0        0       -1       58       26 
Fe      -0.41244925      15.29911502     150.28333660       0.00001999       0.00045576       0.00029999        0        0       -1       58       26 
Fe       1.00182509      17.07868368     149.38423524      -0.00031750      -0.00090678      -0.00023252        0        0       -1       58       26 
Fe      -0.41065379      18.01658659     151.13184496      -0.00032614       0.00089838       0.00030448        0        0       -1       58       26 
Fe       1.00330676      19.78995050     150.20828784       0.00005276      -0.00069148      -0.00002605        0        0       -1       58       26 
Fe      -0.40921756      20.73376715     151.95115019       0.00009791      -0.00014563      -0.00057561        0        0       -1       58       26 
Fe       1.00467923      22.50511735     151.00965002       0.00011671      -0.00056403       0.00012030        0        0       -1       58       26 
Fe      -0.40791479      23.44791883     152.75037201      -0.00021409       0.00013944      -0.00032908        0        0       -1       58       26 
Fe       1.00603199      25.20913310     151.78327837      -0.00070213       0.00001754       0.00008060        0        0       -1       58       26 
Fe      -0.40669172      26.15021504     153.53620438      -0.00087115      -0.00092519       0.00065446        0        0       -1       58       26 
Fe       1.00707361      27.91194860     152.56899827      -0.00082565      -0.00061546      -0.00016568        0        0       -1       58       26 
Fe      -0.40582579      28.84698766     154.33289218      -0.00038419       0.00041930       0.00090013        0        0       -1       58       26 
Fe       1.00791507      30.61175032     153.37340078      -0.00037116      -0.00000386      -0.00023833        0        0       -1       58       26 
Fe      -0.40506520      31.53958380     155.14457646      -0.00020681      -0.00061772       0.00046479        0        0       -1       58       26 
Fe       1.00861549      33.30566066     154.19141429      -0.00013615       0.00066303      -0.00049985        0        0       -1       58       26 
Fe      16.57550638      34.22829506     155.96794478      -0.00097460      -0.00070585      -0.00008732       -1        0       -1       58       26 
Fe       1.00890979      35.99365864     155.01940031       0.00028448       0.00072175      -0.00109287        0        0       -1       58       26 
Fe      -0.40443376      36.91400832     156.79985539      -0.00087102      -0.00048155       0.00036269        0        0       -1       58       26 
Fe       1.00905643      38.67824221     155.85546989      -0.00083870       0.00079235      -0.00107844        0        0       -1       58       26 
Fe      -0.40467065      39.59922286     157.63902794      -0.00120517       0.00138699      -0.00085235        0        0       -1       58       26 
Fe       1.00863300      41.36296420     156.70126981      -0.00008248      -0.00043695       0.00067988        0        0       -1       58       26 
Fe      -0.40524846      42.28639366     158.48611114      -0.00117484      -0.00088190      -0.00021766        0        0       -1       58       26 
Fe       1.00805906      44.05230363     157.55601153       0.00044036       0.00105436      -0.00055688        0        0       -1       58       26 
Fe      -0.40596897      44.97880295     159.34041421      -0.00056775      -0.00022811       0.00045722        0        0       -1       58       26 
Fe       1.00752509      46.74744721     158.41782446       0.00084326       0.00044870       0.00081457        0        0       -1       58       26 
Fe       0.99693151       0.06140643     146.73787719       0.00030683       0.00032181      -0.00018490        0        0       -1       57       26 
Fe      -0.41669269       0.96448399     148.53722387       0.00077356       0.00027759       0.00026921        0        0       -1       58       26 
Fe       0.99728821       2.75814496     147.65216107       0.00045389       0.00011360       0.00011322        0        0       -1       58       26 
Fe      -0.41621181       3.65686214     149.43740129       0.00110764       0.00029613      -0.00089930        0        0       -1       58       26 
Fe       0.99817944       5.43693278     148.53551066       0.00051706      -0.00023553       0.00027114        0        0       -1       58       26 
Fe      -0.41501589       6.34331577     150.32484534       0.00087547      -0.00120093       0.00003910        0        0       -1       58       26 
Fe       0.99961627       8.12604430     149.43424899       0.00041518       0.00061907      -0.00086308        0        0       -1       58       26 
Fe      -0.41331678       9.03996578     151.21190879       0.00003252       0.00070800      -0.00006078        0        0       -1       58       26 
Fe       1.00135804      10.81610726     150.31375980      -0.00019241      -0.00059140       0.00051172        0        0       -1       58       26 
Fe      -0.41138046      11.74350649     152.08478564      -0.00030978       0.00040164      -0.00072273        0        0       -1       58       26 
Fe       1.00317693      13.52307294     151.18735867      -0.00075633      -0.00050744       0.00052868        0        0       -1       58       26 
Fe      -0.40939967      14.45764479     152.94755349      -0.00061514      -0.00010873      -0.00033553        0        0       -1       58       26 
Fe       1.00501646      16.23675774     152.04041679      -0.00079030      -0.00096704      -0.00029331        0        0       -1       58       26 
Fe      -0.40756258      17.17636722     153.79437985      -0.00023455       0.00000702       0.00013808        0        0       -1       58       26 
Fe       1.00679730      18.95715897     152.87875194      -0.00072944      -0.00048612      -0.00164869        0        0       -1       58       26 
Fe      -0.40579741      19.89663471     154.62739925      -0.00070340       0.00028574       0.00086983        0        0       -1       58       26 
Fe       1.00819631      21.67492280     153.69594559      -0.00014084       0.00003292      -0.00040853        0        0       -1       58       26 
Fe      -0.40455157      22.61073490     155.44463454      -0.00046138      -0.00114616      -0.00018733        0        0       -1       58       26 
Fe       1.00937739      24.38467248     154.49795930      -0.00007321       0.00134853      -0.00114217        0        0       -1       58       26 
Fe      -0.40350265      25.31540351     156.25170611      -0.00104496      -0.00047144      -0.00050587        0        0       -1       58       26 
Fe       1.01043137      27.08284108     155.29454817      -0.00064810      -0.00036477      -0.00046858        0        0       -1       58       26 
Fe      -0.40259804      28.00965062     157.05740003      -0.00092838       0.00023016       0.00005086        0        0       -1       58       26 
Fe       1.01117743      29.77482386     156.10037030      -0.00061446      -0.00017070      -0.00013703        0        0       -1       58       26 
Fe      -0.40194740      30.69865620     157.87070834      -0.00028855       0.00077025      -0.00020459        0        0       -1       58       26 
Fe       1.01187087      32.46324786     156.91827151      -0.00084293      -0.00025485       0.00030625        0        0       -1       58       26 
Fe      -0.40146004      33.38522557     158.69337828      -0.00069842       0.00045135       0.00012343        0        0       -1       58       26 
Fe       1.01217494      35.14982455     157.74572438      -0.00088376       0.00010146      -0.00023141        0        0       -1       58       26 
Fe      -0.40151058      36.07143143     159.52381633      -0.00108845       0.00160684      -0.00102235        0        0       -1       58       26 
Fe       1.01191750      37.83511365     158.58052464      -0.00048709      -0.00137330       0.00011197        0        0       -1       58       26 
Fe      -0.40201427      38.75820617     160.36052696      -0.00101804       0.00055213      -0.00036838        0        0       -1       58       26 
Fe       1.01143094      40.52218134     159.42152946      -0.00067080       0.00033953      -0.00002611        0        0       -1       58       26 
Fe      -0.40275891      41.44735291     161.20265531      -0.00057475      -0.00072091      -0.00017298        0        0       -1       58       26 
Fe       1.01067240      43.21252605     160.26906906      -0.00030675       0.00088522       0.00021812        0        0       -1       58       26 
Fe      -0.40357884      44.14064202     162.04986332       0.00015169       0.00059716      -0.00055213        0        0       -1       58       26 
Fe       1.00992401      45.90758792     161.12208976       0.00075272      -0.00104850       0.00077663        0        0       -1       58       26 
Fe      -0.40397421      46.83834996     162.90184111       0.00030924       0.00082722       0.00069569        0        0       -1       58       26 
Fe      -0.41410221       0.09087501     151.23352966       0.00089370       0.00003581       0.00029304        0        0       -1       58       26 
Fe       0.99965158       1.87107045     150.33086183       0.00071403      -0.00017779      -0.00008419        0        0       -1       58       26 
Fe      -0.41378779       2.78375465     152.12019753       0.00144348      -0.00011223       0.00034091        0        0       -1       58       26 
Fe       1.00046313       4.56476819     151.22314880       0.00066716       0.00113713       0.00014631        0        0       -1       58       26 
Fe      -0.41264854       5.48202152     153.00526414       0.00063767      -0.00006497      -0.00139699        0        0       -1       58       26 
Fe       1.00193798       7.26013689     152.10685835       0.00063605      -0.00095468      -0.00008118        0        0       -1       58       26 
Fe      -0.41104267       8.18590071     153.88323507       0.00044726       0.00020516      -0.00004260        0        0       -1       58       26 
Fe       1.00381947       9.96515886     152.98464677       0.00022204      -0.00088114      -0.00019367        0        0       -1       58       26 
Fe      -0.40886517      10.89691922     154.75330554      -0.00040388      -0.00019932       0.00010391        0        0       -1       58       26 
Fe       1.00599468      12.67702846     153.85041879      -0.00110918      -0.00004895       0.00082947        0        0       -1       58       26 
Fe      -0.40669333      13.61334547     155.61319609      -0.00059246       0.00011106      -0.00029920        0        0       -1       58       26 
Fe       1.00793687      15.39516077     154.70577243      -0.00104208      -0.00032001       0.00071150        0        0       -1       58       26 
Fe      -0.40474345      16.33243343     156.46320054      -0.00100993      -0.00029544      -0.00053990        0        0       -1       58       26 
Fe       1.00981778      18.11491919     155.54801621      -0.00073832       0.00039407       0.00038686        0        0       -1       58       26 
Fe      -0.40293813      19.05046590     157.30294829      -0.00120815      -0.00032025      -0.00092892        0        0       -1       58       26 
Fe       1.01147063      20.83215795     156.37853014      -0.00087981       0.00010705      -0.00055758        0        0       -1       58       26 
Fe      -0.40148938      21.76354877     158.13336085      -0.00128666       0.00015684      -0.00087743        0        0       -1       58       26 
Fe       1.01254960      23.54167061     157.19791235      -0.00016404      -0.00068572       0.00028347        0        0       -1       58       26 
Fe      -0.40055459      24.46850614     158.95558403      -0.00088044       0.00025540      -0.00031265        0        0       -1       58       26 
Fe       1.01344279      26.24143551     158.01072114      -0.00035233      -0.00041576       0.00056072        0        0       -1       58       26 
Fe      -0.39983895      27.16483191     159.77335492      -0.00057912      -0.00031939       0.00006579        0        0       -1       58       26 
Fe       1.01419094      28.93309933     158.82364547      -0.00098791      -0.00018048       0.00097620        0        0       -1       58       26 
Fe      -0.39923951      29.85492410     160.59202655      -0.00091064      -0.00048640      -0.00053624        0        0       -1       58       26 
Fe       1.01469411      31.62070938     159.64259463      -0.00105950       0.00011946       0.00000916        0        0       -1       58       26 
Fe      -0.39901346      32.54248942     161.41543133      -0.00113334       0.00034583       0.00032963        0        0       -1       58       26 
Fe       1.01482985      34.30710007     160.46904201      -0.00144682      -0.00069317      -0.00010896        0        0       -1       58       26 
Fe      -0.39927691      35.23004259     162.24462269      -0.00089106       0.00095665       0.00015956        0        0       -1       58       26 
Fe       1.01447625      36.99419027     161.30172738      -0.00147915      -0.00030709      -0.00015836        0        0       -1       58       26 
Fe      -0.39979472      37.91848631     163.07897450      -0.00060733      -0.00062516       0.00080924        0        0       -1       58       26 
Fe       1.01379342      39.68307444     162.13956942      -0.00056812       0.00066520      -0.00081074        0        0       -1       58       26 
Fe      -0.40049150      40.60947222     163.91764408      -0.00052130      -0.00055502       0.00031125        0        0       -1       58       26 
Fe       1.01296823      42.37466471     162.98219216       0.00001865      -0.00036780       0.00013700        0        0       -1       58       26 
Fe      -0.40133082      43.30334088     164.76025817      -0.00049033       0.00000085      -0.00017577        0        0       -1       58       26 
Fe       1.01231743      45.07019754     163.82902259      -0.00035087      -0.00010578       0.00008883        0        0       -1       58       26 
Fe      -0.40203283      46.00086194     165.60667961      -0.00022346       0.00063163       0.00098338        0        0       -1       58       26 
Fe       1.00232238       1.00595684     153.02274170       0.00083307       0.00018381      -0.00015790        0        0       -1       58       26 
Fe      -0.41112194       1.92698102     154.80895819       0.00060299       0.00076015       0.00031752        0        0       -1       58       26 
Fe       1.00296654       3.70338995     153.90507847       0.00066427      -0.00043776       0.00067445        0        0       -1       58       26 
Fe      -0.41039655       4.62949176     155.68588820       0.00078747       0.00025859      -0.00077983        0        0       -1       58       26 
Fe       1.00419144       6.40735913     154.78379859       0.00074030      -0.00011588       0.00131832        0        0       -1       58       26 
Fe      -0.40888820       7.33764251     156.55833307       0.00054189      -0.00124551      -0.00058671        0        0       -1       58       26 
Fe       1.00609286       9.11692821     155.65529177      -0.00006225       0.00030155      -0.00030994        0        0       -1       58       26 
Fe      -0.40678862      10.05102764     157.42477188      -0.00001706      -0.00027910      -0.00036281        0        0       -1       58       26 
Fe       1.00838708      11.83190424     156.51937770      -0.00094605      -0.00011240       0.00005929        0        0       -1       58       26 
Fe      -0.40444843      12.76749580     158.28406867      -0.00095776      -0.00058315      -0.00030899        0        0       -1       58       26 
Fe       1.01058848      14.54980049     157.37455422      -0.00107307       0.00001093      -0.00075461        0        0       -1       58       26 
Fe      -0.40227941      15.48497918     159.13637739      -0.00217211       0.00076525       0.00083286        0        0       -1       58       26 
Fe       1.01246363      17.26779726     158.22158759      -0.00086421      -0.00031993       0.00043304        0        0       -1       58       26 
Fe      -0.40066160      18.20029462     159.98142627      -0.00158388      -0.00014379       0.00020995        0        0       -1       58       26 
Fe       1.01406998      19.98250199     159.06035189      -0.00096853       0.00005750       0.00029466        0        0       -1       58       26 
Fe      -0.39919231      20.91165542     160.82012962      -0.00165128      -0.00021843       0.00028734        0        0       -1       58       26 
Fe       1.01538314      22.69141449     159.89161189      -0.00101312      -0.00023445       0.00031893        0        0       -1       58       26 
Fe      -0.39802309      23.61655465     161.65265140      -0.00177995      -0.00163263      -0.00036943        0        0       -1       58       26 
Fe       1.01613808      25.39261518     160.71660445      -0.00047679      -0.00000339      -0.00163991        0        0       -1       58       26 
Fe      -0.39746036      26.31533419     162.48066019      -0.00074756       0.00062244       0.00008525        0        0       -1       58       26 
Fe       1.01665998      28.08678882     161.53895551      -0.00070381       0.00049284      -0.00059215        0        0       -1       58       26 
Fe      -0.39718024      29.00858536     163.30627494      -0.00107025      -0.00058896      -0.00006659        0        0       -1       58       26 
Fe       1.01698828      30.77668649     162.36185659      -0.00150327       0.00130752      -0.00006715        0        0       -1       58       26 
Fe      -0.39726286      31.69906015     164.13240338      -0.00183685       0.00141224      -0.00011389        0        0       -1       58       26 
Fe       1.01682520      33.46496044     163.18856569      -0.00144435      -0.00042643       0.00072210        0        0       -1       58       26 
Fe      -0.39763762      34.38851331     164.96172565      -0.00180933      -0.00023587       0.00018715        0        0       -1       58       26 
Fe       1.01638116      36.15397657     164.01983876      -0.00118768       0.00101952      -0.00048820        0        0       -1       58       26 
Fe      -0.39815997      37.07908139     165.79463135      -0.00131617      -0.00005257      -0.00013875        0        0       -1       58       26 
Fe       1.01581277      38.84431238     164.85536261      -0.00107631       0.00069557      -0.00080689        0        0       -1       58       26 
Fe      -0.39895152      39.77149460     166.63095798      -0.00073049       0.00036930      -0.00040925        0        0       -1       58       26 
Fe       1.01497661      41.53727296     165.69457094      -0.00115610      -0.00054801      -0.00008412        0        0       -1       58       26 
Fe      -0.39993731      42.46602836     167.47055666       0.00056656      -0.00026010      -0.00014819        0        0       -1       58       26 
Fe       1.01400377      44.23303308     166.53723204      -0.00027141       0.00052263       0.00059033        0        0       -1       58       26 
Fe      -0.40048558      45.16316673     168.31319147       0.00101379      -0.00055261       0.00008236        0        0       -1       58       26 
Fe       1.01350157      46.93183866     167.38308475       0.00069009      -0.00000157      -0.00083596        0        0       -1       58       26 
Fe       1.00507357       0.15244440     155.71756891       0.00057183       0.00050847       0.00024574        0        0       -1       58       26 
Fe      -0.40879993       1.07925540     157.50171933       0.00093420       0.00061970       0.00037935        0        0       -1       58       26 
Fe       1.00523688       2.85321548     156.59152386       0.00112682      -0.00079392      -0.00008543        0        0       -1       58       26 
Fe      -0.40833166       3.78344410     158.37108143       0.00120936      -0.00004058       0.00108545        0        0       -1       58       26 
Fe       1.00626694       5.55977823     157.46323358       0.00081447       0.00075167       0.00031693        0        0       -1       58       26 
Fe      -0.40695367       6.49265612     159.23809727       0.00062650      -0.00052410       0.00061284        0        0       -1       58       26 
Fe       1.00806192       8.27118694     158.33074979      -0.00002773       0.00065450       0.00066083        0        0       -1       58       26 
Fe      -0.40509140       9.20559033     160.10121452      -0.00011150       0.00004810      -0.00054479        0        0       -1       58       26 
Fe       1.01024642      10.98605111     159.19262649      -0.00021949       0.00046813       0.00132328        0        0       -1       58       26 
Fe      -0.40286734      11.92059362     160.95999609      -0.00112621      -0.00042343      -0.00139305        0        0       -1       58       26 
Fe       1.01260329      13.70232555     160.04874293      -0.00061465       0.00022439       0.00065865        0        0       -1       58       26 
Fe      -0.40066243      14.63547737     161.81354503      -0.00166369      -0.00063252      -0.00056921        0        0       -1       58       26 
Fe       1.01455601      16.41782317     160.89876012      -0.00092214      -0.00036189      -0.00089826        0        0       -1       58       26 
Fe      -0.39891439      17.34852090     162.66263419      -0.00208343      -0.00043588      -0.00039722        0        0       -1       58       26 
Fe       1.01600446      19.13031099     161.74307081      -0.00115460      -0.00042577      -0.00076283        0        0       -1       58       26 
Fe      16.58228720      20.05792978     163.50661349      -0.00188590       0.00074776       0.00034985       -1        0       -1       58       26 
Fe       1.01728209      21.83811889     162.58219045      -0.00149940       0.00017775      -0.00125564        0        0       -1       58       26 
Fe      -0.39670262      22.76334371     164.34630382      -0.00189930       0.00031646       0.00007540        0        0       -1       58       26 
Fe       1.01821863      24.54050854     163.41622819      -0.00153141      -0.00032760      -0.00017949        0        0       -1       58       26 
Fe      -0.39596701      25.46384169     165.18127119      -0.00184495       0.00046439      -0.00051539        0        0       -1       58       26 
Fe       1.01860588      27.23771247     164.24631000      -0.00137033       0.00025397      -0.00057175        0        0       -1       58       26 
Fe      -0.39587351      28.16041141     166.01340491      -0.00175479      -0.00036180      -0.00082580        0        0       -1       58       26 