10428
Lattice="16.98 0.0 0.0 0.0 59.09213484 0.0 0.0 0.0 118.23552744" Properties=species:S:1:pos:R:3:force:R:3:map_shift:I:3:n_neighb:I:1:Z:I:1 nneightol=1.2 virial="-68.94185457 0.02417756 -0.25803349 0.02417756 -109.98114872 4.3513827 -0.25803349 4.3513827 153.00643986" energy=-41705.37376896 cutoff=5.3 pbc="T T T"
Fe      14.56886063      46.73465281       2.06911883       0.00012434      -0.00011161       0.00000740       -1       -1        0       58       26 
Fe       0.42522419       2.93649508      89.00683424      -0.00000576       0.00002078      -0.00001261        0        0       -1       58       26 
Fe       0.42378304       5.52684834      90.16360292       0.00002316      -0.00000697      -0.00000636        0        0       -1       54       26 
Fe       1.84027781       7.43423372      89.01142803      -0.00000748       0.00001900      -0.00001117        0        0       -1       58       26 
Fe       0.42385697       8.19713275      90.93440521       0.00002168      -0.00001619      -0.00000446        0        0       -1       56       26 
Fe       1.83872073      10.02393078      90.15744403       0.00002482      -0.00000762      -0.00001502        0        0       -1       54       26 
Fe       0.42345164      10.94897781      91.86679487       0.00002984      -0.00000407      -0.00000382        0        0       -1       55       26 
Fe       1.83887746      12.67698013      90.92283238       0.00002134      -0.00001021       0.00000384        0        0       -1       56       26 
Fe       0.42326739      13.62374841      92.72141105       0.00003369      -0.00003643      -0.00001357        0        0       -1       57       26 
Fe       1.83846124      15.41909735      91.85545294       0.00002891      -0.00002271      -0.00004325        0        0       -1       55       26 
Fe       0.42303144      16.34217669      93.61251121       0.00003889      -0.00001915       0.00003161        0        0       -1       58       26 
Fe       1.83832425      18.09518814      92.69582126       0.00003300       0.00005345       0.00004271        0        0       -1       57       26 
Fe       0.42284156      19.08200810      94.43461481       0.00004207      -0.00003548      -0.00009107        0        0       -1       58       26 
Fe       1.83812490      20.87085377      93.53334002       0.00003886      -0.00017786      -0.00009028        0        0       -1       58       26 
Fe       0.42265670      21.83901650      95.24868845       0.00004411       0.00000745       0.00012938        0        0       -1       58       26 
Fe       1.83796963      23.61599094      94.29520240       0.00004175       0.00006779       0.00013894        0        0       -1       58       26 
Fe       0.42246777      24.56912995      96.02113175       0.00004729      -0.00009863      -0.00011851        0        0       -1       58       26 
Fe       1.83775469      26.34010653      95.04706290       0.00004573      -0.00009800      -0.00010689        0        0       -1       58       26 
Fe       0.42224874      27.27636602      96.77520790       0.00005394      -0.00000497       0.00008704        0        0       -1       58       26 
Fe       1.83750076      29.01070965      95.74912458       0.00004873       0.00000248       0.00006951        0        0       -1       58       26 
Fe       1.83892018       0.98502039      90.17443992       0.00002036      -0.00001225       0.00000749        0        0       -1       52       26 
Fe       0.42347867       1.96216430      91.91629026       0.00002939      -0.00001881      -0.00000834        0        0       -1       53       26 
Fe       1.83882547       3.69370248      90.95451009       0.00002258      -0.00001182      -0.00000221        0        0       -1       54       26 
Fe       0.42322191       4.66321165      92.77024182       0.00003478      -0.00002339      -0.00000039        0        0       -1       57       26 
Fe       1.83845579       6.46242773      91.88050072       0.00002981      -0.00001386      -0.00000735        0        0       -1       55       26 
Fe       0.42297993       7.38110163      93.66407540       0.00003946      -0.00001913      -0.00000531        0        0       -1       58       26 
Fe       1.83824381       9.14778415      92.74067793       0.00003406      -0.00002439       0.00000132        0        0       -1       57       26 
Fe       0.42275296      10.08363171      94.53169023       0.00004404      -0.00004367      -0.00000360        0        0       -1       58       26 
Fe       1.83799678      11.86133621      93.63964551       0.00003919      -0.00001488      -0.00002260        0        0       -1       58       26 
Fe       0.42252319      12.80145399      95.40846514       0.00004867      -0.00000908      -0.00000435        0        0       -1       58       26 
Fe       1.83777743      14.56715295      94.49840642       0.00004375      -0.00002288       0.00001567        0        0       -1       58       26 
Fe       0.42231393      15.53032121      96.25726920       0.00005289      -0.00004778      -0.00002586        0        0       -1       58       26 
Fe       1.83756654      17.30862804      95.35321886       0.00004747      -0.00006437      -0.00003331        0        0       -1       58       26 
Fe       0.42211307      18.27395352      97.09411935       0.00005751      -0.00003324       0.00003627        0        0       -1       58       26 
Fe       1.83737248      20.05301381      96.17047136       0.00005107       0.00001549       0.00005159        0        0       -1       58       26 
Fe       0.42192184      21.01221356      97.90967274       0.00006162      -0.00007607      -0.00006429        0        0       -1       58       26 
Fe       1.83718874      22.79395409      96.97626932       0.00005497      -0.00010125      -0.00009171        0        0       -1       58       26 
Fe       0.42173825      23.74097655      98.71289262       0.00006599      -0.00001607       0.00007191        0        0       -1       58       26 
Fe       1.83699155      25.51296655      97.75528686       0.00005944       0.00001426       0.00009850        0        0       -1       58       26 
Fe       0.42153931      26.45026354      99.49774383       0.00006965      -0.00008928      -0.00007632        0        0       -1       58       26 
Fe       1.83677841      28.20756474      98.51895922       0.00006401      -0.00008916      -0.00006283        0        0       -1       58       26 
Fe       0.42134194      29.14104468     100.27079979       0.00007331      -0.00003925       0.00004255        0        0       -1       58       26 
Fe       1.83822213       0.21197838      92.90372525       0.00003445      -0.00004037      -0.00001620        0        0       -1       57       26 
Fe       0.42272142       1.17325642      94.70273567       0.00004513      -0.00001991       0.00001868        0        0       -1       58       26 
Fe       1.83797266       2.90798978      93.71802122       0.00003987      -0.00001851       0.00000430        0        0       -1       58       26 
Fe       0.42248287       3.85582104      95.51707037       0.00004982      -0.00003226      -0.00000651        0        0       -1       58       26 
Fe       1.83772964       5.60796396      94.57296048       0.00004464      -0.00003462      -0.00000036        0        0       -1       58       26 
Fe       0.42225858       6.55426020      96.36717347       0.00005416      -0.00004352       0.00000186        0        0       -1       58       26 
Fe       1.83749989       8.31830144      95.44789827       0.00004925      -0.00002906      -0.00000726        0        0       -1       58       26 
Fe       0.42202667       9.26584171      97.22832691       0.00005882      -0.00003532      -0.00000217        0        0       -1       58       26 
Fe       1.83727046      11.03028663      96.31190220       0.00005390      -0.00005156       0.00001021        0        0       -1       58       26 
Fe       0.42182115      11.98755114      98.08220288       0.00006303      -0.00006421       0.00000001        0        0       -1       58       26 
Fe       1.83706415      13.75861521      97.16998382       0.00005806      -0.00004375      -0.00001836        0        0       -1       58       26 
Fe       0.42162252      14.71990331      98.92785069       0.00006696      -0.00004041       0.00001042        0        0       -1       58       26 
Fe       1.83686665      16.49459992      98.00966918       0.00006249      -0.00004033       0.00001696        0        0       -1       58       26 
Fe       0.42143349      17.45450577      99.76156647       0.00007082      -0.00007238      -0.00001803        0        0       -1       58       26 
Fe       1.83666940      19.23296151      98.83843249       0.00006703      -0.00007248      -0.00003648        0        0       -1       58       26 
Fe       0.42124969      20.18632327     100.58633690       0.00007446      -0.00004415       0.00003473        0        0       -1       58       26 
Fe       1.83648907      21.96358335      99.65311505       0.00007083      -0.00003122       0.00004576        0        0       -1       58       26 
Fe       0.42107307      22.90980735     101.40066206       0.00007810      -0.00008548      -0.00003988        0        0       -1       58       26 
Fe       1.83630056      24.68281222     100.45648852       0.00007425      -0.00009110      -0.00005396        0        0       -1       58       26 
Fe       0.42089995      25.62307789     102.20480446       0.00008207      -0.00005043       0.00004503        0        0       -1       58       26 
Fe       1.83611924      27.38686914     101.24607595       0.00007775      -0.00004083       0.00004247        0        0       -1       58       26 
Fe       0.42071931      28.32547229     102.99790432       0.00008566      -0.00008304      -0.00002349        0        0       -1       58       26 
Fe       0.42201971       0.39785699      97.51031555       0.00005972      -0.00006535      -0.00004107        0        0       -1       58       26 
Fe       1.83724695       2.11995606      96.49503184       0.00005458      -0.00005165      -0.00001206        0        0       -1       58       26 
Fe       0.42179126       3.06507524      98.28097444       0.00006390      -0.00004688       0.00001286        0        0       -1       58       26 
Fe       1.83702048       4.80358566      97.31041832       0.00005904      -0.00003656       0.00000064        0        0       -1       58       26 
Fe       0.42155549       5.75447660      99.09663790       0.00006849      -0.00004873      -0.00000465        0        0       -1       58       26 
Fe       1.83678391       7.50547492      98.15328528       0.00006375      -0.00005184       0.00000209        0        0       -1       58       26 
Fe       0.42136511       8.46154767      99.93213097       0.00007229      -0.00005982       0.00000240        0        0       -1       58       26 
Fe       1.83658575      10.22189967      99.00265268       0.00006785      -0.00004767      -0.00000618        0        0       -1       58       26 
Fe       0.42116909      11.18124560     100.77221431       0.00007620      -0.00005641       0.00000226        0        0       -1       58       26 
Fe       1.83638746      12.94808540      99.84707021       0.00007176      -0.00005966       0.00001118        0        0       -1       58       26 
Fe       0.42098342      13.90755247     101.60967840       0.00007996      -0.00007218      -0.00000404        0        0       -1       58       26 
Fe       1.83620532      15.67940198     100.68496766       0.00007537      -0.00006722      -0.00001165        0        0       -1       58       26 
Fe       0.42081505      16.63570047     102.44261255       0.00008353      -0.00006324       0.00001435        0        0       -1       58       26 
Fe       1.83602770      18.40979699     101.51482341       0.00007920      -0.00005568       0.00002314        0        0       -1       58       26 
Fe       0.42064924      19.36140088     103.26981027       0.00008689      -0.00008349      -0.00001689        0        0       -1       58       26 
Fe       1.83585377      21.13549882     102.33739046       0.00008307      -0.00008821      -0.00002747        0        0       -1       58       26 
Fe       0.42048579      22.08243801     104.09075958       0.00009032      -0.00006312       0.00003213        0        0       -1       58       26 
Fe       1.83568534      23.85379182     103.15133497       0.00008650      -0.00005259       0.00003767        0        0       -1       58       26 
Fe       0.42032873      24.79750749     104.90407683       0.00009371      -0.00009447      -0.00002856        0        0       -1       58       26 
Fe       1.83551932      26.56405231     103.95608663       0.00008974      -0.00009549      -0.00002667        0        0       -1       58       26 
Fe       0.42017486      27.50668823     105.70923064       0.00009690      -0.00007009       0.00003179        0        0       -1       58       26 
Fe       1.83535475      29.26685953     104.75193039       0.00009319      -0.00006276       0.00002730        0        0       -1       58       26 
Fe       1.83655951       1.33426201      99.27644665       0.00006863      -0.00003994       0.00001581        0        0       -1       58       26 
Fe       0.42113002       2.27521371     101.04343636       0.00007730      -0.00006572      -0.00001280        0        0       -1       58       26 
Fe       1.83634130       4.01248875     100.06126370       0.00007282      -0.00006501      -0.00000223        0        0       -1       58       26 
Fe       0.42093868       4.96283230     101.83644607       0.00008115      -0.00006671       0.00001227        0        0       -1       58       26 
Fe       1.83614724       6.70872275     100.87611354       0.00007680      -0.00005579       0.00000256        0        0       -1       58       26 
Fe       0.42075110       7.66476773     102.65025101       0.00008490      -0.00006808      -0.00000101        0        0       -1       58       26 
Fe       1.83595491       9.41982992     101.70547444       0.00008061      -0.00006849       0.00000407        0        0       -1       58       26 
Fe       0.42057818      10.37789573     103.47527776       0.00008826      -0.00007604       0.00000337        0        0       -1       58       26 
Fe       1.83577501      12.14022047     102.53902642       0.00008427      -0.00007038      -0.00000202        0        0       -1       58       26 
Fe       0.42041359      13.09742233     104.30437271       0.00009170      -0.00007469       0.00000686        0        0       -1       58       26 
Fe       1.83560878      14.86459886     103.37158800       0.00008788      -0.00007053       0.00001028        0        0       -1       58       26 
Fe       0.42026451      15.81908060     105.13350189       0.00009483      -0.00008487      -0.00000370        0        0       -1       58       26 
Fe       1.83545276      17.58899142     104.20116693       0.00009106      -0.00008430      -0.00000855        0        0       -1       58       26 
Fe       0.42012079      18.54021685     105.96045523       0.00009775      -0.00007861       0.00001463        0        0       -1       58       26 
Fe       1.83529915      20.31076317     105.02620619       0.00009413      -0.00006975       0.00002002        0        0       -1       58       26 
Fe       0.41998252      21.25903759     106.78351557       0.00010068      -0.00009362      -0.00001161        0        0       -1       58       26 
Fe       1.83515098      23.02858995     105.84561947       0.00009717      -0.00009838      -0.00002112        0        0       -1       58       26 
Fe       0.41984973      23.97490106     107.60137337       0.00010379      -0.00007976       0.00002492        0        0       -1       58       26 
Fe       1.83500660      25.74198285     106.65813328       0.00010039      -0.00007083       0.00002844        0        0       -1       58       26 
Fe       0.41972085      26.68744963     108.41305723       0.00010646      -0.00010264      -0.00001785        0        0       -1       58       26 
Fe       1.83486806      28.45104298     107.46358128       0.00010344      -0.00010366      -0.00001912        0        0       -1       58       26 
Fe       0.41960023      29.39677202     109.21885587       0.00010880      -0.00008613       0.00002294        0        0       -1       58       26 
Fe       1.83592160       0.53258334     102.02677016       0.00008151      -0.00008048      -0.00001680        0        0       -1       58       26 
Fe       0.42054483       1.47426742     103.78467431       0.00008934      -0.00006756       0.00002512        0        0       -1       58       26 
Fe       1.83573677       3.22026495     102.80959125       0.00008525      -0.00005976       0.00001570        0        0       -1       58       26 
Fe       0.42037431       4.16827567     104.57445725       0.00009279      -0.00008276      -0.00001008        0        0       -1       58       26 
Fe       1.83556034       5.91525986     103.60759382       0.00008889      -0.00008032      -0.00000086        0        0       -1       58       26 
Fe       0.42021248       6.86839150     105.37589463       0.00009591      -0.00008046       0.00000981        0        0       -1       58       26 
Fe       1.83538993       8.62091791     104.42072743       0.00009213      -0.00007486       0.00000426        0        0       -1       58       26 
Fe       0.42005910       9.57618441     106.18885601       0.00009892      -0.00008419       0.00000360        0        0       -1       58       26 
Fe       1.83523092      11.33458514     105.24293573       0.00009536      -0.00008136       0.00000631        0        0       -1       58       26 
Fe       0.41991957      12.28952619     107.00930530       0.00010184      -0.00008898       0.00000377        0        0       -1       58       26 
Fe       1.83508523      14.05247187     106.06900104       0.00009845      -0.00008602       0.00000042        0        0       -1       58       26 
Fe       0.41979172      15.00581831     107.83316402       0.00010459      -0.00008836       0.00000886        0        0       -1       58       26 
Fe       1.83495202      16.77167167     106.89549119       0.00010141      -0.00008359       0.00001104        0        0       -1       58       26 
Fe       0.41967425      17.72293632     108.65750366       0.00010718      -0.00009599      -0.00000065        0        0       -1       58       26 
Fe       1.83482327      19.49019178     107.72020517       0.00010434      -0.00009522      -0.00000421        0        0       -1       58       26 
Fe      17.39956114      20.43964307     109.48011933       0.00010966      -0.00009183       0.00001293       -1        0       -1       58       26 
Fe       1.83470003      22.20704939     108.54132848       0.00010700      -0.00008523       0.00001658        0        0       -1       58       26 
Fe       0.41945483      23.15512480     110.29938367       0.00011190      -0.00010244      -0.00000417        0        0       -1       58       26 
Fe       1.83458387      24.92168454     109.35767290       0.00010922      -0.00010446      -0.00001070        0        0       -1       58       26 
Fe       0.41935659      25.86897344     111.11435855       0.00011393      -0.00009395       0.00001764        0        0       -1       58       26 
Fe       1.83447370      27.63381563     110.16864676       0.00011147      -0.00008860       0.00002143        0        0       -1       58       26 
Fe       0.41926472      28.58083513     111.92479398       0.00011575      -0.00010839      -0.00000531        0        0       -1       58       26 
Fe       0.42002851       0.66471961     106.50726986       0.00009997      -0.00009669      -0.00002129        0        0       -1       58       26 
Fe       1.83519778       2.41914074     105.54339401       0.00009644      -0.00009479      -0.00001323        0        0       -1       58       26 
Fe       0.41988531       3.36605542     107.30260017       0.00010279      -0.00008303       0.00001769        0        0       -1       58       26 
Fe       1.83504378       5.11789481     106.33828705       0.00009944      -0.00007876       0.00001245        0        0       -1       58       26 
Fe       0.41975041       6.06817607     108.10140992       0.00010544      -0.00009418      -0.00000141        0        0       -1       58       26 
Fe       1.83489893       7.82136014     107.14235044       0.00010228      -0.00009072       0.00000247        0        0       -1       58       26 
Fe       0.41962483       8.77369812     108.90768039       0.00010800      -0.00009293       0.00000761        0        0       -1       58       26 
Fe       1.83476547      10.53018432     107.95550955       0.00010503      -0.00009021       0.00000522        0        0       -1       58       26 
Fe       0.41951151      11.48302900     109.72118286       0.00011033      -0.00009553       0.00000628        0        0       -1       58       26 
Fe       1.83464540      13.24297758     108.77480407       0.00010750      -0.00009255       0.00000765        0        0       -1       58       26 
Fe       0.41941048      14.19526882     110.53966378       0.00011239      -0.00009922       0.00000404        0        0       -1       58       26 
Fe       1.83453577      15.95787100     109.59695740       0.00010976      -0.00009766       0.00000216        0        0       -1       58       26 
Fe       0.41931839      16.90913863     111.36034693       0.00011433      -0.00009895       0.00000905        0        0       -1       58       26 
Fe       1.83443385      18.67349972     110.41936988       0.00011194      -0.00009550       0.00001046        0        0       -1       58       26 
Fe       0.41923314      19.62365559     112.18099661       0.00011623      -0.00010420       0.00000290        0        0       -1       58       26 
Fe       1.83433779      21.38887599     111.24002763       0.00011407      -0.00010326       0.00000045        0        0       -1       58       26 
Fe       0.41915524      22.33804205     112.99984514       0.00011802      -0.00010185       0.00001028        0        0       -1       58       26 
Fe       1.83424956      24.10338399     112.05757144       0.00011603      -0.00009879       0.00001302        0        0       -1       58       26 
Fe       0.41908559      25.05179714     113.81583077       0.00011963      -0.00010860       0.00000235        0        0       -1       58       26 
Fe       1.83416953      26.81663512     112.87134518       0.00011780      -0.00010772      -0.00000230        0        0       -1       58       26 
Fe       0.41902448      27.76450756     114.62861931       0.00012099      -0.00010403       0.00001059        0        0       -1       58       26 
Fe       1.83409661      29.52826100     113.68146575       0.00011941      -0.00010272       0.00001333        0        0       -1       58       26 
Fe       1.83473959       1.61045607     108.26357832       0.00010593      -0.00008262       0.00002004        0        0       -1       58       26 
Fe       0.41948724       2.55736590     110.02065259       0.00011096      -0.00010349      -0.00000606        0        0       -1       58       26 
Fe       1.83461205       4.31413875     109.06214612       0.00010837      -0.00009953      -0.00000302        0        0       -1       58       26 
Fe       0.41937894       5.26275829     110.82205997       0.00011321      -0.00009614       0.00001155        0        0       -1       58       26 
Fe       1.83449618       7.01852110     109.86416894       0.00011072      -0.00009406       0.00001009        0        0       -1       58       26 
Fe       0.41928339       7.96870159     111.62670888       0.00011518      -0.00010261       0.00000417        0        0       -1       58       26 
Fe       1.83439120       9.72535732     110.67227862       0.00011289      -0.00009920       0.00000522        0        0       -1       58       26 
Fe       0.41919903      10.67645045     112.43637663       0.00011692      -0.00010267       0.00000582        0        0       -1       58       26 
Fe       1.83429804      12.43496308     111.48616132       0.00011482      -0.00010109       0.00000507        0        0       -1       58       26 
Fe       0.41912541      13.38627291     113.25059166       0.00011851      -0.00010396       0.00000790        0        0       -1       58       26 
Fe       1.83421553      15.14678696     112.30396848       0.00011661      -0.00010144       0.00000824        0        0       -1       58       26 
Fe       0.41906160      16.09781215     114.06778083       0.00011997      -0.00010681       0.00000506        0        0       -1       58       26 
Fe       1.83414092      17.85991325     113.12332843       0.00011830      -0.00010543       0.00000427        0        0       -1       58       26 
Fe       0.41900507      18.81037478     114.88593091       0.00012128      -0.00010662       0.00000808        0        0       -1       58       26 
Fe       1.83407370      20.57358388     113.94234708       0.00011984      -0.00010505       0.00000902        0        0       -1       58       26 
Fe       0.41895677      21.52335687     115.70343003       0.00012239      -0.00010966       0.00000625        0        0       -1       58       26 
Fe       1.83401464      23.28718366     114.75953474       0.00012118      -0.00010789       0.00000424        0        0       -1       58       26 
Fe       0.41891724      24.23624005     116.51911603       0.00012328      -0.00010866       0.00000685        0        0       -1       58       26 
Fe       1.83396428      26.00025511     115.57415412       0.00012230      -0.00010843       0.00000940        0        0       -1       58       26 
Fe       0.41888695      26.94864975     117.33253531       0.00012396      -0.00011192       0.00000737        0        0       -1       58       26 
Fe       1.83392302      28.71245408     116.38615161       0.00012318      -0.00010917       0.00000423        0        0       -1       58       26 
Fe       1.83436996       0.79738147     110.97489496       0.00011349      -0.00010643      -0.00000657        0        0       -1       58       26 
Fe       0.41917936       1.74463765     112.73164082       0.00011758      -0.00009882       0.00001382        0        0       -1       58       26 
Fe       1.83427433       3.50494926     111.77844328       0.00011550      -0.00009774       0.00001366        0        0       -1       58       26 
Fe       0.41910306       4.45290854     113.53685046       0.00011911      -0.00010809       0.00000259        0        0       -1       58       26 
Fe       1.83418732       6.21159896     112.58230211       0.00011725      -0.00010487       0.00000243        0        0       -1       58       26 
Fe       0.41903812       7.16051825     114.34284842       0.00012040      -0.00010514       0.00000682        0        0       -1       58       26 
Fe       1.83411255       8.91867253     113.38915407       0.00011876      -0.00010507       0.00000693        0        0       -1       58       26 
Fe       0.41898405       9.86853152     115.15153034       0.00012148      -0.00010823       0.00000756        0        0       -1       58       26 
Fe       1.83404837      11.62714954     114.20009443       0.00012010      -0.00010527       0.00000736        0        0       -1       58       26 
Fe       0.41894018      12.57760879     115.96350991       0.00012243      -0.00010917       0.00000465        0        0       -1       58       26 
Fe       1.83399449      14.33718373     115.01456453       0.00012130      -0.00010860       0.00000520        0        0       -1       58       26 
Fe       0.41890604      15.28783415     116.77816951       0.00012321      -0.00010945       0.00000829        0        0       -1       58       26 
Fe       1.83394940      17.04851814     115.83117369       0.00012235      -0.00010822       0.00000801        0        0       -1       58       26 
Fe       0.41888033      17.99898844     117.59422642       0.00012383      -0.00011095       0.00000642        0        0       -1       58       26 
Fe       1.83391209      19.76061024     116.64820245       0.00012324      -0.00010953       0.00000648        0        0       -1       58       26 
Fe       1.83388343      22.47295429     117.46430116       0.00012393      -0.00011177       0.00000690        0        0       -1       58       26 
Fe       0.41897143       0.92984133     115.43860341       0.00012209      -0.00011143       0.00000345        0        0       -1       58       26 
Fe       1.83403105       2.69223157     114.48900527       0.00012073      -0.00010842       0.00000118        0        0       -1       58       26 
Fe       0.41892686       3.64004894     116.24689741       0.00012298      -0.00010751       0.00000656        0        0       -1       58       26 
Fe       1.83397583       5.40109014     115.29576538       0.00012182      -0.00010846       0.00000821        0        0       -1       58       26 
Fe      17.39889325       6.34946548     117.05506960       0.00012364      -0.00011145       0.00000790       -1        0       -1       58       26 
Fe       1.83393223       8.10953858     116.10361286       0.00012268      -0.00010772       0.00000647        0        0       -1       58       26 
Fe       0.41887086       9.05866680     117.86454150       0.00012409      -0.00011080       0.00000354        0        0       -1       58       26 