17676
Lattice="16.98 0.0 0.0 0.0 76.98432308 0.0 0.0 0.0 153.93454255" Properties=species:S:1:pos:R:3:force:R:3:map_shift:I:3:n_neighb:I:1:Z:I:1 nneightol=1.2 virial="-370.24040749 0.08556108 9.66747752 0.08556108 -407.79650918 37.00636031 9.66747752 37.00636031 -268.78732052" energy=-70749.6137864 cutoff=5.3 pbc="T T T"
Fe      15.83341574      72.66514278       8.99581506       0.00032652       0.00000121      -0.00004856       -1       -1        0       58       26
Fe      14.41956368      71.72920465       7.22417145       0.00025674      -0.00000429      -0.00002786       -1       -1        0       58       26
Fe       0.28537951       5.37387732     116.86774101       0.00002421       0.00004234       0.00002053        0        0       -1       52       26
Fe      15.83393085      69.96065204       8.16084376       0.00036010       0.00000994      -0.00001189       -1       -1        0       58       26
Fe       0.28518451       8.04037560     117.64311052       0.00002419      -0.00001964       0.00001189        0        0       -1       54       26
Fe       1.70025931       9.86764399     116.85802839       0.00000251      -0.00004814      -0.00000150        0        0       -1       54       26
Fe       0.28564833      10.79117296     118.57723404       0.00003964      -0.00006332       0.00003610        0        0       -1       55       26
Fe       1.70011793      12.52466506     117.63025161       0.00008963      -0.00002804       0.00000501        0        0       -1       56       26
Fe       0.28593051      13.46561727     119.43983672       0.00008408      -0.00001717       0.00002663        0        0       -1       57       26
Fe       1.70069138      15.26930708     118.56648175       0.00008620      -0.00004050      -0.00001681        0        0       -1       55       26
Fe       0.28634252      16.17046400     120.34480774      -0.00001098       0.00001158      -0.00009685        0        0       -1       58       26
Fe       1.70104439      17.93829160     119.42592116      -0.00003903       0.00003276      -0.00000563        0        0       -1       57       26
Fe       0.28674556      18.86236935     121.21505966      -0.00008589      -0.00006996       0.00007088        0        0       -1       58       26
Fe       1.70147466      20.64294061     120.32818625       0.00000272      -0.00009125       0.00010360        0        0       -1       58       26
Fe       0.28718466      21.57383710     122.09551573       0.00004492      -0.00003489       0.00008292        0        0       -1       58       26
Fe       1.70195797      23.34207261     121.18746131       0.00008963       0.00001306       0.00010769        0        0       -1       58       26
Fe       0.28777870      24.29828552     122.94610497      -0.00007460       0.00005914       0.00005356        0        0       -1       58       26
Fe       1.70260348      26.08046518     122.04346336      -0.00021250       0.00000156      -0.00014792        0        0       -1       58       26
Fe       0.28845239      27.03971441     123.78426664      -0.00056015      -0.00003154      -0.00016727        0        0       -1       58       26
Fe       1.70316759      28.82450655     122.85958800      -0.00055428      -0.00003673      -0.00012070        0        0       -1       58       26
Fe       0.28883758      29.77326577     124.60188383      -0.00059329      -0.00005028      -0.00005503        0        0       -1       58       26
Fe       1.70339109      31.56058200     123.66649058      -0.00028633      -0.00000122       0.00014664        0        0       -1       58       26
Fe       0.28891366      32.49288625     125.41033052      -0.00010121       0.00008061       0.00012336        0        0       -1       58       26
Fe       1.70351097      34.26876627     124.45183392       0.00003949       0.00004445      -0.00000075        0        0       -1       58       26
Fe       0.28909896      35.19189301     126.20370064      -0.00006726      -0.00001027      -0.00006072        0        0       -1       58       26
Fe       1.70382275      36.95335281     125.22683094      -0.00027278      -0.00009428      -0.00022983        0        0       -1       58       26
Fe       0.28943777      37.87345340     126.98960092      -0.00066735      -0.00008761      -0.00022047        0        0       -1       58       26
Fe       1.70057290       0.87847717     116.90542578      -0.00009263       0.00003146      -0.00000657        0        0       -1       54       26
Fe       0.28612216       1.82996096     118.65762170      -0.00008277       0.00003594       0.00002339        0        0       -1       53       26
Fe       1.70046867       3.54942127     117.67295538      -0.00001161       0.00001968      -0.00005003        0        0       -1       54       26
Fe       0.28628132       4.51103190     119.49698653      -0.00000461      -0.00000746      -0.00008812        0        0       -1       57       26
Fe       1.70080937       6.30631117     118.59582901       0.00003443       0.00001269       0.00002288        0        0       -1       53       26
Fe       0.28640821       7.21850126     120.38739248       0.00005441      -0.00007314       0.00006966        0        0       -1       58       26
Fe       1.70097643       8.98748581     119.45798843       0.00004200      -0.00005240       0.00006673        0        0       -1       57       26
Fe       0.28660797       9.91230514     121.25979122       0.00005864      -0.00001913       0.00007433        0        0       -1       58       26
Fe       1.70126637      11.69496364     120.36141740       0.00005253      -0.00006884       0.00001676        0        0       -1       58       26
Fe       0.28691088      12.61470349     122.14759883      -0.00002704       0.00006763      -0.00005164        0        0       -1       58       26
Fe       1.70161900      14.38720853     121.23574109      -0.00001145       0.00007850      -0.00003825        0        0       -1       58       26
Fe       0.28728466      15.31451090     123.02362028      -0.00017373      -0.00004032       0.00002933        0        0       -1       58       26
Fe       1.70201670      17.09141562     122.12349719      -0.00013653      -0.00010120      -0.00002308        0        0       -1       58       26
Fe       0.28764045      18.02437191     123.89946375      -0.00013038      -0.00009830      -0.00002912        0        0       -1       58       26
Fe       1.70241024      19.79733159     122.99304398      -0.00004106      -0.00004561       0.00006278        0        0       -1       58       26
Fe       0.28803628      20.74295243     124.76131807       0.00004831       0.00002367       0.00005210        0        0       -1       58       26
Fe       1.70290833      22.52148556     123.85581166       0.00002450       0.00003306       0.00006810        0        0       -1       58       26
Fe       0.28865046      23.47230517     125.61301577      -0.00021354       0.00005743       0.00006088        0        0       -1       58       26
Fe       1.70360610      25.25416665     124.69843810      -0.00042145       0.00003999      -0.00000450        0        0       -1       58       26
Fe       0.28932439      26.20247596     126.45197932      -0.00079686       0.00000841      -0.00002962        0        0       -1       58       26
Fe       1.70416617      27.98788257     125.53087039      -0.00081301      -0.00005487      -0.00015182        0        0       -1       58       26
Fe       0.28967420      28.92743643     127.28305159      -0.00085501      -0.00003798      -0.00015574        0        0       -1       58       26
Fe       1.70433389      30.71061128     126.35085222      -0.00048027       0.00001833      -0.00001408        0        0       -1       58       26
Fe       0.28969085      31.64198765     128.10485967      -0.00036954       0.00004302       0.00002675        0        0       -1       58       26
Fe       1.70438160      33.42007236     127.16169046      -0.00007543       0.00005441       0.00009051        0        0       -1       58       26
Fe      17.26976524      34.34526935     128.91823817      -0.00030385      -0.00001189       0.00008147       -1        0       -1       58       26
Fe       1.70461812      36.11399602     127.96149735      -0.00042559      -0.00005878      -0.00008200        0        0       -1       58       26
Fe       0.28998853      37.03706840     129.72332808      -0.00083113      -0.00015319      -0.00008720        0        0       -1       58       26
Fe       1.70161187       0.07420440     119.64082077      -0.00015832       0.00004227       0.00002335        0        0       -1       57       26
Fe       0.28732141       1.01240373     121.43683987      -0.00022060       0.00012275       0.00004539        0        0       -1       58       26
Fe       1.70181009       2.75788617     120.45710081      -0.00010831       0.00006913       0.00002361        0        0       -1       58       26
Fe       0.28742830       3.68917513     122.25664672      -0.00014482      -0.00002653       0.00009183        0        0       -1       58       26
Fe       1.70189172       5.44449146     121.30565280       0.00001753      -0.00011764      -0.00005513        0        0       -1       58       26
Fe       0.28743265       6.37546853     123.10707637       0.00008933      -0.00010112      -0.00009425        0        0       -1       58       26
Fe       1.70198366       8.14277790     122.18123815       0.00010524      -0.00005037       0.00004923        0        0       -1       58       26
Fe       0.28751233       9.07099913     123.97473590       0.00011436       0.00004367      -0.00001377        0        0       -1       58       26
Fe       1.70219282      10.83919707     123.05485543       0.00000299       0.00013738       0.00005379        0        0       -1       58       26
Fe       0.28777159      11.77061517     124.84473926      -0.00012474       0.00002656       0.00015832        0        0       -1       58       26
Fe       1.70254195      13.54234967     123.93320379      -0.00020587      -0.00005343       0.00002384        0        0       -1       58       26
Fe       0.28810728      14.47747915     125.71540094      -0.00027902      -0.00006388       0.00002589        0        0       -1       58       26
Fe       1.70287968      16.24966741     124.80469642      -0.00023042      -0.00007001      -0.00000746        0        0       -1       58       26
Fe       0.28838151      17.19142366     126.58013996      -0.00010929      -0.00004887      -0.00005130        0        0       -1       58       26
Fe       1.70319131      18.96687097     125.67040898       0.00000973      -0.00004137      -0.00004121        0        0       -1       58       26
Fe       0.28870011      19.91284183     127.43799024       0.00004777      -0.00000662      -0.00005674        0        0       -1       58       26
Fe       1.70365578      21.69137139     126.52493686      -0.00002434       0.00005780       0.00006053        0        0       -1       58       26
Fe       0.28922874      22.63761844     128.28762984      -0.00032356       0.00004516       0.00009374        0        0       -1       58       26
Fe       1.70432090      24.41932348     127.37089254      -0.00059219       0.00004698       0.00007125        0        0       -1       58       26
Fe       0.28979937      25.36140950     129.13088462      -0.00090630       0.00003597       0.00004571        0        0       -1       58       26
Fe       1.70483417      27.14385473     128.20854212      -0.00100978      -0.00000479      -0.00008303        0        0       -1       58       26
Fe       0.29007093      28.08045985     129.96797245      -0.00098205       0.00002998      -0.00013283        0        0       -1       58       26
Fe       1.70495981      29.86169311     129.03947036      -0.00075430       0.00001295      -0.00013549        0        0       -1       58       26
Fe       0.29004442      30.79312232     130.79897938      -0.00067686      -0.00008454      -0.00004518        0        0       -1       58       26
Fe       1.70492512      32.57061961     129.86263603      -0.00043364      -0.00002665       0.00010109        0        0       -1       58       26
Fe       0.28998752      33.49839395     131.62320620      -0.00065110      -0.00005705       0.00012472        0        0       -1       58       26
Fe       1.70500174      35.27044045     130.67836258      -0.00065899      -0.00009015       0.00005792        0        0       -1       58       26
Fe       0.28995392      36.19657007     132.44099607      -0.00083864       0.00003703      -0.00004101        0        0       -1       58       26
Fe       1.70506369      37.96194031     131.48783825      -0.00099462      -0.00004780      -0.00014520        0        0       -1       58       26
Fe       0.28846807       0.20504752     124.22674792      -0.00043467      -0.00003174      -0.00008303        0        0       -1       58       26
Fe       1.70299090       1.94304526     123.22985678      -0.00036557       0.00006327       0.00013998        0        0       -1       58       26
Fe       0.28860319       2.87172430     125.02009785      -0.00049792       0.00010428       0.00018409        0        0       -1       58       26
Fe       1.70299556       4.61960643     124.05389259      -0.00011965      -0.00000033       0.00009208        0        0       -1       58       26
Fe       0.28844489       5.55085543     125.84751939      -0.00006243      -0.00001288       0.00007484        0        0       -1       58       26
Fe       1.70292282       7.30709347     124.90330517       0.00016880      -0.00006915      -0.00015732        0        0       -1       58       26
Fe       0.28832772       8.24090965     126.69502880       0.00018908      -0.00019142      -0.00014320        0        0       -1       58       26
Fe       1.70300717      10.00358041     125.76529834       0.00006934      -0.00009066       0.00000656        0        0       -1       58       26
Fe       0.28846351      10.94023524     127.55204357       0.00002715      -0.00006941      -0.00004451        0        0       -1       58       26
Fe       1.70329796      12.70699123     126.63000784      -0.00018800       0.00005713       0.00017792        0        0       -1       58       26
Fe       0.28874890      13.64747825     128.41104756      -0.00023295       0.00009635       0.00021227        0        0       -1       58       26
Fe       1.70358225      15.41825259     127.49353395      -0.00022319      -0.00000950       0.00005041        0        0       -1       58       26
Fe       0.28898759      16.36175738     129.26848694      -0.00025409       0.00004242       0.00003976        0        0       -1       58       26
Fe       1.70381768      18.13608080     128.35193072      -0.00003886      -0.00002175      -0.00008647        0        0       -1       58       26
Fe       0.28917454      19.08057568     130.12198630      -0.00016789      -0.00004815      -0.00005113        0        0       -1       58       26
Fe       1.70415394      20.85806156     129.20444453      -0.00013197      -0.00003147      -0.00002403        0        0       -1       58       26
Fe       0.28944924      21.80081161     130.97113251      -0.00038710      -0.00002216      -0.00001048        0        0       -1       58       26
Fe       1.70463318      23.58022301     130.05120193      -0.00064052       0.00002981       0.00008074        0        0       -1       58       26
Fe       0.28975673      24.51957349     131.81607514      -0.00075821       0.00008394       0.00002656        0        0       -1       58       26
Fe       1.70499018      26.29957425     130.89300950      -0.00097122       0.00008930      -0.00000752        0        0       -1       58       26
Fe       0.28988108      27.23521002     132.65686352      -0.00084480      -0.00001160       0.00000909        0        0       -1       58       26
Fe       1.70504319      29.01426019     131.72966571      -0.00084151      -0.00007421      -0.00008094        0        0       -1       58       26
Fe       0.28978364      29.94653346     133.49310069      -0.00077256      -0.00007338      -0.00005286        0        0       -1       58       26
Fe       1.70492948      31.72327742     132.56075067      -0.00072769      -0.00007849       0.00000740        0        0       -1       58       26
Fe       0.28956847      32.65318912     134.32412441      -0.00078300       0.00001675      -0.00001892        0        0       -1       58       26
Fe       1.70478794      34.42639167     133.38577689      -0.00078530       0.00006424       0.00003844        0        0       -1       58       26
Fe       0.28927970      35.35528966     135.14970171      -0.00070753       0.00001651       0.00001915        0        0       -1       58       26
Fe       1.70457677      37.12423981     134.20524811      -0.00074912       0.00001400      -0.00006064        0        0       -1       58       26
Fe       0.28891682      38.05354386     135.97052263      -0.00055619      -0.00002280      -0.00004836        0        0       -1       58       26
Fe       1.70410621       1.12862487     126.00334955      -0.00074123       0.00000355      -0.00002484        0        0       -1       58       26
Fe       0.28957222       2.05389280     127.78072566      -0.00095979      -0.00007220       0.00004554        0        0       -1       58       26
Fe       1.70405318       3.80087324     126.80769847      -0.00055094       0.00006032       0.00022391        0        0       -1       58       26
Fe       0.28932997       4.73169062     128.59261300      -0.00052935       0.00001358       0.00025322        0        0       -1       58       26
Fe       1.70378271       6.48394027     127.63739053      -0.00001690      -0.00011309       0.00009331        0        0       -1       58       26
Fe       0.28902623       7.41922037     129.42349760      -0.00001631      -0.00003818       0.00002888        0        0       -1       58       26
Fe       1.70368467       9.17748441     128.48257947       0.00016703      -0.00014114      -0.00018117        0        0       -1       58       26
Fe       0.28899147      10.11647478     130.26622657       0.00001285      -0.00008777      -0.00017749        0        0       -1       58       26
Fe       1.70386735      11.88013488     129.33489618      -0.00009032      -0.00005286      -0.00007189        0        0       -1       58       26
Fe       0.28920927      12.82187375     131.11452457      -0.00040028      -0.00001610      -0.00009156        0        0       -1       58       26
Fe       1.70413618      14.59018233     130.18881202      -0.00041014       0.00014001       0.00018955        0        0       -1       58       26
Fe       0.28940292      15.53326070     131.96439364      -0.00073349       0.00006891       0.00020702        0        0       -1       58       26
Fe       1.70428696      17.30553538     131.04154227      -0.00043886       0.00001887       0.00009802        0        0       -1       58       26
Fe       0.28937070      18.24815016     132.81375417      -0.00061828       0.00002260       0.00009118        0        0       -1       58       26
Fe       1.70435388      20.02334781     131.89159836      -0.00036392      -0.00003980      -0.00003799        0        0       -1       58       26
Fe       0.28924915      20.96403296     133.66140441      -0.00039254       0.00004225      -0.00004213        0        0       -1       58       26
Fe       1.70447318      22.74096085     132.73854179      -0.00049629       0.00004949      -0.00001997        0        0       -1       58       26
Fe       0.28920035      23.67915556     134.50668556      -0.00044401       0.00001034       0.00002085        0        0       -1       58       26
Fe       1.70457475      25.45667411     133.58213041      -0.00068851      -0.00000797       0.00001979        0        0       -1       58       26
Fe       0.28913554      26.39217117     135.34919206      -0.00065195      -0.00001091       0.00001270        0        0       -1       58       26
Fe       1.70451630      28.16924278     134.42209264      -0.00075558      -0.00001640      -0.00000443        0        0       -1       58       26
Fe       0.28890697      29.10255335     136.18825973      -0.00074400      -0.00002424      -0.00002031        0        0       -1       58       26
Fe       1.70428108      30.87824339     135.25777268      -0.00076086      -0.00002505      -0.00005727        0        0       -1       58       26
Fe       0.28850322      31.81002897     137.02329291      -0.00065864      -0.00006100      -0.00000947        0        0       -1       58       26
Fe       1.70392173      33.58352218     136.08860314      -0.00068673      -0.00002508       0.00002338        0        0       -1       58       26
Fe       0.28801176      34.51456152     137.85385929      -0.00051059      -0.00002899       0.00000092        0        0       -1       58       26
Fe       1.70349836      36.28531376     136.91455776      -0.00053054      -0.00001793      -0.00001829        0        0       -1       58       26
Fe       0.28751620      37.21644721     138.68008451      -0.00041339      -0.00003701      -0.00005608        0        0       -1       58       26
Fe       1.70487658       0.30370925     128.75658779      -0.00102191      -0.00017970      -0.00017723        0        0       -1       58       26
Fe       0.29004309       1.22873780     130.52575560      -0.00113155      -0.00010563      -0.00016724        0        0       -1       58       26
Fe       1.70480090       2.98144869     129.55786040      -0.00100094      -0.00004789       0.00007863        0        0       -1       58       26
Fe       0.28978131       3.91148363     131.33414382      -0.00091047       0.00001300       0.00007361        0        0       -1       58       26
Fe       1.70444297       5.66462523     130.37484045      -0.00048924       0.00006707       0.00020097        0        0       -1       58       26
Fe       0.28940542       6.59962994     132.15453478      -0.00048397       0.00005624       0.00016020        0        0       -1       58       26
Fe       1.70417930       8.35656271     131.20615134      -0.00012815      -0.00001012      -0.00000996        0        0       -1       58       26
Fe       0.28922841       9.29531837     132.98593309      -0.00033278       0.00001894      -0.00006208        0        0       -1       58       26
Fe       1.70422449      11.05696936     132.04665501      -0.00031477      -0.00001911      -0.00015872        0        0       -1       58       26
Fe       0.28931539      11.99791175     133.82468865      -0.00073841      -0.00003195      -0.00005190        0        0       -1       58       26
Fe       1.70442138      13.76404996     132.89182108      -0.00083863      -0.00007015      -0.00004081        0        0       -1       58       26
Fe       0.28935691      14.70565446     134.66758174      -0.00117018      -0.00008032      -0.00001103        0        0       -1       58       26
Fe       1.70441426      16.47551401     133.73872685      -0.00098675       0.00001248       0.00014086        0        0       -1       58       26
Fe       0.28905807      17.41649595     135.51240004      -0.00089924       0.00000934       0.00003569        0        0       -1       58       26
Fe       1.70413244      19.18912334     134.58569343      -0.00057127       0.00007824       0.00004911        0        0       -1       58       26
Fe      17.26858468      20.12862192     136.35756536      -0.00033144       0.00003607       0.00003215       -1        0       -1       58       26
Fe       1.70385188      21.90302878     135.43152814      -0.00027783       0.00001365      -0.00000282        0        0       -1       58       26
Fe       0.28823810      22.84062805     137.20197724      -0.00029160       0.00000710       0.00004797        0        0       -1       58       26
Fe       1.70368662      24.61583227     136.27550058      -0.00046234       0.00001303       0.00006745        0        0       -1       58       26
Fe       0.28795052      25.55165727     138.04474125      -0.00061004      -0.00000647       0.00007303        0        0       -1       58       26
Fe       1.70345607      27.32686467     137.11692340      -0.00070779      -0.00003821      -0.00000222        0        0       -1       58       26
Fe       0.28749967      28.26118099     138.88510062      -0.00067391      -0.00005079       0.00000345        0        0       -1       58       26
Fe       1.70302609      30.03567962     137.95507461      -0.00066033      -0.00005947      -0.00001244        0        0       -1       58       26
Fe       0.28688166      30.96891496     139.72233689      -0.00047778      -0.00005388      -0.00002374        0        0       -1       58       26
Fe       1.70246704      32.74216970     138.78940900      -0.00047985      -0.00004403      -0.00001100        0        0       -1       58       26
Fe       0.28624150      33.67480201     140.55594317      -0.00035938      -0.00004369       0.00000150        0        0       -1       58       26
Fe       1.70190900      35.44637512     139.61966707      -0.00039956      -0.00003937      -0.00001404        0        0       -1       58       26
Fe       0.28566669      36.37886446     141.38591282      -0.00035450      -0.00003480      -0.00004410        0        0       -1       58       26
Fe       1.70139191      38.14849671     140.44614926      -0.00037650      -0.00005049      -0.00008090        0        0       -1       58       26
Fe       0.28980867       0.39684069     133.25391762      -0.00088806      -0.00003108      -0.00013926        0        0       -1       58       26
Fe       1.70490108       2.15649616     132.29590662      -0.00101073      -0.00005334      -0.00014288        0        0       -1       58       26
Fe       0.28949634       3.08670493     134.06632918      -0.00081368      -0.00009014      -0.00007299        0        0       -1       58       26
Fe       1.70454474       4.84384731     133.10930494      -0.00078020      -0.00001636       0.00009831        0        0       -1       58       26
Fe       0.28912701       5.77794260     134.88339305      -0.00063648      -0.00002688       0.00007475        0        0       -1       58       26
Fe       1.70422040       7.53612672     133.93208453      -0.00050514       0.00003771       0.00006977        0        0       -1       58       26
Fe       0.28887378       8.47346213     135.70795035      -0.00055128      -0.00002525       0.00000261        0        0       -1       58       26
Fe       1.70412267      10.23462896     134.76352259      -0.00060959      -0.00001999      -0.00005532        0        0       -1       58       26
Fe       0.28877628      11.17386056     136.53951864      -0.00084384      -0.00002342      -0.00006928        0        0       -1       58       26
Fe       1.70413428      12.93851402     135.60104923      -0.00108385      -0.00001163       0.00003979        0        0       -1       58       26
Fe       0.28857328      13.87839105     137.37627855      -0.00105926       0.00005381       0.00010310        0        0       -1       58       26
Fe       1.70389845      15.64625488     136.44237179      -0.00111316      -0.00003001       0.00000704        0        0       -1       58       26
Fe       0.28807370      16.58580738     138.21653353      -0.00070527      -0.00003632       0.00002543        0        0       -1       58       26
Fe       1.70336076      18.35620254     137.28569272      -0.00053953      -0.00004954      -0.00005851        0        0       -1       58       26
Fe       0.28746631      19.29479465     139.05874662      -0.00033038      -0.00012680      -0.00011266        0        0       -1       58       26
Fe       1.70283845      21.06687867     138.12946865      -0.00024893      -0.00001713       0.00002286        0        0       -1       58       26
Fe       0.28694417      22.00424535     139.90137975      -0.00044553      -0.00005271      -0.00000190        0        0       -1       58       26
Fe       1.70243531      23.77734987     138.97263044      -0.00049265      -0.00000632       0.00007556        0        0       -1       58       26
Fe       0.28637761      24.71349694     140.74341229      -0.00060960       0.00001195       0.00008253        0        0       -1       58       26
Fe       1.70193953      26.48699073     139.81426801      -0.00064731      -0.00000880       0.00006284        0        0       -1       58       26
Fe       0.28562941      27.42208666     141.58396297      -0.00044939      -0.00002261       0.00005541        0        0       -1       58       26
Fe       1.70126246      29.19540015     140.65357771      -0.00047824      -0.00004098       0.00000203        0        0       -1       58       26
Fe      17.26481034      30.12972708     142.42223015      -0.00024716      -0.00004496       0.00000974       -1        0       -1       58       26
Fe       1.70053895      31.90242235     141.48988270      -0.00032044      -0.00005639      -0.00000583        0        0       -1       58       26
Fe       0.28406551      32.83621317     143.25763586      -0.00021945      -0.00000315      -0.00003660        0        0       -1       58       26
Fe       1.69988266      34.60789897     142.32280506      -0.00030308      -0.00000569      -0.00000688        0        0       -1       58       26
Fe       0.28341929      35.54140229     144.08993587      -0.00019860       0.00004561      -0.00003808        0        0       -1       58       26