13944
Lattice="16.98 0.0 0.0 0.0 68.39004021 0.0 0.0 0.0 136.78145064" Properties=species:S:1:pos:R:3:force:R:3:map_shift:I:3:n_neighb:I:1:Z:I:1 nneightol=1.2 virial="-289.79267842 -0.10545691 3.9419987 -0.10545691 -331.56611897 0.89870415 3.9419987 0.89870415 -181.38578499" energy=-55779.94978849 cutoff=5.3 pbc="T T T"
Fe       1.26341469       6.89032982     102.16514177       0.00019473       0.00071628       0.00005242        0        0       -1       53       26
Fe      -0.13984977       2.53949885     103.48989367      -0.00008957      -0.00028601       0.00012607        0        0       -1       60       26
Fe       1.27501146       4.52858547     103.30961457      -0.00009983      -0.00032592       0.00008107        0        0       -1       52       26
Fe      -0.13122925       5.08059071     105.13052482      -0.00006546      -0.00023219      -0.00000497        0        0       -1       53       26
Fe       1.28633633       6.95451805     104.42142301      -0.00013646      -0.00024706      -0.00021587        0        0       -1       53       26
Fe      -0.12703302       7.73284446     106.15195782      -0.00013728      -0.00009318      -0.00020591        0        0       -1       53       26
Fe       1.28457517       9.51494395     105.25064816      -0.00023467      -0.00017191      -0.00031909        0        0       -1       54       26
Fe      -0.12551609      10.26231116     107.14088087      -0.00016201      -0.00060374      -0.00054306        0        0       -1       57       26
Fe       1.28777093      12.11037414     106.36887860      -0.00017522      -0.00019714      -0.00004158        0        0       -1       55       26
Fe      -0.12278225      12.80918704     108.28078471      -0.00024833      -0.00077651      -0.00012151        0        0       -1       58       26
Fe       1.29061144      14.66273971     107.57994083      -0.00023054      -0.00049351       0.00007213        0        0       -1       58       26
Fe      -0.12008788      15.38207695     109.48871813      -0.00029248      -0.00068156       0.00031587        0        0       -1       58       26
Fe       1.29322561      17.26761376     108.84400880      -0.00028899      -0.00026390       0.00077258        0        0       -1       58       26
Fe      -0.11745233      17.97970708     110.71416288      -0.00039992      -0.00079294       0.00041542        0        0       -1       58       26
Fe       1.29606458      19.86023166     110.03336467      -0.00034598      -0.00067233       0.00051494        0        0       -1       58       26
Fe      -0.11484664      20.57045741     111.90446699      -0.00040073      -0.00074637       0.00016750        0        0       -1       58       26
Fe       1.29868833      22.45254942     111.22155801      -0.00040461      -0.00074880      -0.00011197        0        0       -1       58       26
Fe      -0.11236810      23.15829038     113.08986239      -0.00043559      -0.00084298      -0.00023004        0        0       -1       58       26
Fe       1.30114385      25.04247750     112.40236436      -0.00043124      -0.00096277      -0.00025062        0        0       -1       58       26
Fe      -0.11000932      25.74208542     114.26238293      -0.00047424      -0.00067409      -0.00004319        0        0       -1       58       26
Fe       1.30355118      27.61273896     113.54203837      -0.00047375      -0.00079812       0.00011898        0        0       -1       58       26
Fe      -0.10767238      28.31403549     115.41120045      -0.00055103      -0.00049087       0.00012381        0        0       -1       58       26
Fe       1.30596086      30.17761738     114.68457732      -0.00056580      -0.00059161       0.00030494        0        0       -1       58       26
Fe      -0.10537771      30.88310195     116.56354007      -0.00068021      -0.00053937      -0.00002462        0        0       -1       58       26
Fe       1.30827307      32.74948844     115.85049901      -0.00062389      -0.00077906      -0.00000388        0        0       -1       58       26
Fe      -0.10324143      33.45664474     117.73158410      -0.00067210      -0.00052244       0.00027183        0        0       -1       58       26
Fe       1.28310663       0.65179876     104.45557442      -0.00017222      -0.00009166       0.00030804        0        0       -1       54       26
Fe      -0.12764471       1.34694893     106.29132317      -0.00015354      -0.00021239       0.00029848        0        0       -1       55       26
Fe       1.28587729       3.16848210     105.56012696      -0.00002736      -0.00014546       0.00052076        0        0       -1       58       26
Fe      -0.12454992       3.91639082     107.47621186      -0.00010408      -0.00048072       0.00033223        0        0       -1       58       26
Fe       1.28877358       5.83794839     106.89854622      -0.00011531      -0.00024826      -0.00012142        0        0       -1       57       26
Fe      -0.12198493       6.54928582     108.71112869      -0.00026629      -0.00049361      -0.00021455        0        0       -1       58       26
Fe       1.29150714       8.43081034     107.97268792      -0.00020710      -0.00055091      -0.00029029        0        0       -1       58       26
Fe      -0.11944955       9.12234290     109.81787878      -0.00035304      -0.00079476      -0.00022174        0        0       -1       58       26
Fe       1.29385003      10.96533410     109.03247753      -0.00033482      -0.00084282      -0.00022446        0        0       -1       58       26
Fe      -0.11694480      11.66854512     110.92025666      -0.00033740      -0.00099527      -0.00009697        0        0       -1       58       26
Fe       1.29648899      13.51992569     110.18453960      -0.00028020      -0.00092151      -0.00002564        0        0       -1       58       26
Fe      -0.11438457      14.23236421     112.07880829      -0.00036450      -0.00094814       0.00008958        0        0       -1       58       26
Fe       1.29910155      16.09905499     111.38216839      -0.00033010      -0.00077006       0.00032878        0        0       -1       58       26
Fe      -0.11189465      16.81239373     113.26844905      -0.00043701      -0.00090930       0.00022248        0        0       -1       58       26
Fe       1.30162419      18.69041203     112.58793956      -0.00050110      -0.00083393       0.00017216        0        0       -1       58       26
Fe      -0.10950608      19.39888798     114.46333970      -0.00052615      -0.00075103       0.00027565        0        0       -1       58       26
Fe       1.30406626      21.27763512     113.77655092      -0.00056556      -0.00072913       0.00000866        0        0       -1       58       26
Fe      -0.10722133      21.98357513     115.64901222      -0.00058733      -0.00078241      -0.00008671        0        0       -1       58       26
Fe       1.30639022      23.86258251     114.95824228      -0.00059410      -0.00070797      -0.00010174        0        0       -1       58       26
Fe      -0.10503484      24.56635064     116.82745635      -0.00057027      -0.00046229      -0.00008504        0        0       -1       58       26
Fe       1.30865136      26.44322853     116.12727637      -0.00060812      -0.00047691       0.00005635        0        0       -1       58       26
Fe      -0.10288475      27.14532271     117.99538210      -0.00064421      -0.00028735       0.00023477        0        0       -1       58       26
Fe       1.31089642      29.01649171     117.28260436      -0.00062342      -0.00044680       0.00001201        0        0       -1       58       26
Fe      -0.10080181      29.71944942     119.15537043      -0.00068267      -0.00044909      -0.00035834        0        0       -1       58       26
Fe       1.31301317      31.58808760     118.44134049      -0.00069495      -0.00045220      -0.00005775        0        0       -1       58       26
Fe      16.88111783      32.29264298     120.31833803      -0.00069241      -0.00028554      -0.00018071       -1        0       -1       58       26
Fe      -0.12177439       0.17010371     108.84400880      -0.00028899      -0.00026390       0.00077258        0        0       -1       58       26
Fe       1.29181290       2.04827078     108.16313329      -0.00023160      -0.00048207       0.00035354        0        0       -1       58       26
Fe      -0.11893542       2.76272161     110.03336467      -0.00034598      -0.00067233       0.00051494        0        0       -1       58       26
Fe       1.29460185       4.64375724     109.35188354      -0.00031461      -0.00055865      -0.00005737        0        0       -1       58       26
Fe      -0.11631167       5.35503937     111.22155801      -0.00040461      -0.00074880      -0.00011197        0        0       -1       58       26
Fe       1.29712080       7.24744716     110.55008013      -0.00038183      -0.00079530      -0.00029306        0        0       -1       58       26
Fe      -0.11385615       7.94496745     112.40236436      -0.00043124      -0.00096277      -0.00025062        0        0       -1       58       26
Fe       1.29960811       9.81642938     111.67666150      -0.00035032      -0.00084568       0.00001556        0        0       -1       58       26
Fe      -0.11144882      10.51522891     113.54203837      -0.00047375      -0.00079812       0.00011898        0        0       -1       58       26
Fe       1.30208335      12.37415574     112.80382644      -0.00036735      -0.00086741       0.00022549        0        0       -1       58       26
Fe      -0.10903914      13.08010732     114.68457732      -0.00056580      -0.00059161       0.00030494        0        0       -1       58       26
Fe       1.30453813      14.94321688     113.96668339      -0.00052962      -0.00094352      -0.00002664        0        0       -1       58       26
Fe      -0.10672693      15.65197838     115.85049901      -0.00062389      -0.00077906      -0.00000388        0        0       -1       58       26
Fe       1.30689651      17.52253873     115.15097406      -0.00058934      -0.00082631       0.00013775        0        0       -1       58       26
Fe      -0.10453193      18.23058403     117.03122853      -0.00063732      -0.00079083      -0.00000699        0        0       -1       58       26
Fe       1.30913366      20.10596208     116.33914585      -0.00058414      -0.00085442       0.00000582        0        0       -1       58       26
Fe      -0.10246930      20.81203605     118.21485646      -0.00055612      -0.00072609       0.00010111        0        0       -1       58       26
Fe       1.31125817      22.68873143     117.52170907      -0.00050967      -0.00069235      -0.00012216        0        0       -1       58       26
Fe      -0.10048169      23.39341922     119.39465494      -0.00058543      -0.00062337       0.00011587        0        0       -1       58       26
Fe       1.31332434      25.26992187     118.69770132      -0.00060912      -0.00051855       0.00004516        0        0       -1       58       26
Fe      -0.09855102      25.97332277     120.56896923      -0.00085570      -0.00051511       0.00007272        0        0       -1       58       26
Fe       1.31533737      27.84787066     119.86564043      -0.00071730      -0.00039783       0.00007712        0        0       -1       58       26
Fe      -0.09675957      28.55064299     121.73735252      -0.00080933      -0.00048409      -0.00005693        0        0       -1       58       26
Fe       1.31719981      30.42260584     121.02895450      -0.00071942      -0.00040977      -0.00040572        0        0       -1       58       26
Fe      -0.09511938      31.12588306     122.90299423      -0.00077701      -0.00034556      -0.00018934        0        0       -1       58       26
Fe       1.31892637      32.99693654     122.19474600      -0.00081210      -0.00029652      -0.00019480        0        0       -1       58       26
Fe      -0.09358577      33.70095866     124.07076585      -0.00091945      -0.00027913       0.00012965        0        0       -1       58       26
Fe       1.29754767       0.88219703     110.71416288      -0.00039992      -0.00079294       0.00041542        0        0       -1       58       26
Fe      -0.11337581       1.59290198     112.58793956      -0.00050110      -0.00083393       0.00017216        0        0       -1       58       26
Fe       1.30015336       3.47294736     111.90446699      -0.00040073      -0.00074637       0.00016750        0        0       -1       58       26
Fe      -0.11093374       4.18012506     113.77655092      -0.00056556      -0.00072913       0.00000866        0        0       -1       58       26
Fe       1.30263190       6.06078033     113.08986239      -0.00043559      -0.00084298      -0.00023004        0        0       -1       58       26
Fe      -0.10860978       6.76507246     114.95824228      -0.00059410      -0.00070797      -0.00010174        0        0       -1       58       26
Fe       1.30499068       8.64457536     114.26238293      -0.00047424      -0.00067409      -0.00004319        0        0       -1       58       26
Fe      -0.10634864       9.34571848     116.12727637      -0.00060812      -0.00047691       0.00005635        0        0       -1       58       26
Fe       1.30732762      11.21652544     115.41120045      -0.00055103      -0.00049087       0.00012381        0        0       -1       58       26
Fe      -0.10410358      11.91898165     117.28260436      -0.00062342      -0.00044680       0.00001201        0        0       -1       58       26
Fe       1.30962229      13.78559190     116.56354007      -0.00068021      -0.00053937      -0.00002462        0        0       -1       58       26
Fe      -0.10198683      14.49057755     118.44134049      -0.00069495      -0.00045220      -0.00005775        0        0       -1       58       26
Fe       1.31175857      16.35913469     117.73158410      -0.00067210      -0.00052244       0.00027183        0        0       -1       58       26
Fe      -0.10002578      17.06516174     119.61083916      -0.00076003      -0.00036355       0.00028374        0        0       -1       58       26
Fe       1.31377397      18.93722388     118.90994066      -0.00061534      -0.00064363       0.00006380        0        0       -1       58       26
Fe      -0.09818434      19.64300895     120.78753790      -0.00072381      -0.00046730      -0.00000020        0        0       -1       58       26
Fe       1.31567869      21.51748201     120.09032758      -0.00059452      -0.00049285       0.00031105        0        0       -1       58       26
Fe      -0.09644561      22.22233538     121.96557165      -0.00085188      -0.00030505      -0.00009047        0        0       -1       58       26
Fe       1.31751839      24.09767047     121.26790852      -0.00081537      -0.00035822       0.00029253        0        0       -1       58       26
Fe      -0.09481014      24.80160241     123.14149006      -0.00095762      -0.00032995       0.00005116        0        0       -1       58       26
Fe       1.31924471      26.67658990     122.44109994      -0.00086526      -0.00050426       0.00004312        0        0       -1       58       26
Fe      -0.09332879      27.37982218     124.31394480      -0.00078150      -0.00036045       0.00017646        0        0       -1       58       26
Fe       1.32079713      29.25357497     123.61005994      -0.00077521      -0.00040232       0.00004601        0        0       -1       58       26
Fe      -0.09197672      29.95658469     125.48341814      -0.00078454      -0.00043580      -0.00011058        0        0       -1       58       26
Fe       1.32223560      31.82916615     124.77734160      -0.00082795      -0.00033502       0.00016713        0        0       -1       58       26
Fe      -0.09075294      32.53243267     126.65193064      -0.00083033      -0.00026314       0.00066739        0        0       -1       58       26
Fe      -0.10810349       0.42502867     115.15097406      -0.00058934      -0.00082631       0.00013775        0        0       -1       58       26
Fe       1.30549392       2.30137792     114.46333970      -0.00052615      -0.00075103       0.00027565        0        0       -1       58       26
Fe      -0.10586634       3.00845203     116.33914585      -0.00058414      -0.00085442       0.00000582        0        0       -1       58       26
Fe       1.30777867       4.88606507     115.64901222      -0.00058733      -0.00078241      -0.00008671        0        0       -1       58       26
Fe      -0.10374183       5.59122137     117.52170907      -0.00050967      -0.00069235      -0.00012216        0        0       -1       58       26
Fe       1.30996516       7.46884059     116.82745635      -0.00057027      -0.00046229      -0.00008504        0        0       -1       58       26
Fe      -0.10167566       8.17241181     118.69770132      -0.00060912      -0.00051855       0.00004516        0        0       -1       58       26
Fe       1.31211525      10.04781265     117.99538210      -0.00064421      -0.00028735       0.00023477        0        0       -1       58       26
Fe      -0.09966263      10.75036061     119.86564043      -0.00071730      -0.00039783       0.00007712        0        0       -1       58       26
Fe       1.31419819      12.62193937     119.15537043      -0.00068267      -0.00044909      -0.00035834        0        0       -1       58       26
Fe      -0.09780019      13.32509579     121.02895450      -0.00071942      -0.00040977      -0.00040572        0        0       -1       58       26
Fe       1.31611783      15.19513293     120.31833803      -0.00069241      -0.00028554      -0.00018071        0        0       -1       58       26
Fe      -0.09607363      15.89942649     122.19474600      -0.00081210      -0.00029652      -0.00019480        0        0       -1       58       26
Fe       1.31791485      17.77048633     121.48879244      -0.00078199      -0.00018121       0.00004722        0        0       -1       58       26
Fe      -0.09447123      18.47524241     123.36587690      -0.00088995      -0.00012305      -0.00005871        0        0       -1       58       26
Fe       1.31956669      20.34807694     122.66429221      -0.00085970      -0.00020465      -0.00024599        0        0       -1       58       26
Fe      -0.09303449      21.05264993     124.54042683      -0.00093279      -0.00002672       0.00003580        0        0       -1       58       26
Fe       1.32109723      22.92676243     123.84066382      -0.00088468      -0.00020737      -0.00005881        0        0       -1       58       26
Fe      -0.09172422      23.63083696     125.71556882      -0.00087346      -0.00038547      -0.00032043        0        0       -1       58       26
Fe       1.32250572      25.50532931     125.01530722      -0.00081432      -0.00042787      -0.00016081        0        0       -1       58       26
Fe      -0.09051845      26.20883269     126.88932822      -0.00080401      -0.00030439      -0.00007291        0        0       -1       58       26
Fe       1.32377867      28.08301712     126.18735269      -0.00081826      -0.00029306       0.00017162        0        0       -1       58       26
Fe      -0.08944789      28.78610337     128.06113731      -0.00088128      -0.00031940      -0.00005463        0        0       -1       58       26
Fe       1.32491667      30.65961367     127.35722692      -0.00085262      -0.00031347       0.00001154        0        0       -1       58       26
Fe      -0.08854523      31.36256685     129.23140638      -0.00091146      -0.00023791       0.00032471        0        0       -1       58       26
Fe       1.32590320      33.23558249     128.52670195      -0.00082752      -0.00022728       0.00062140        0        0       -1       58       26
Fe      -0.08779081      33.93859514     130.40162369      -0.00087675      -0.00019248       0.00043929        0        0       -1       58       26
Fe       1.31046807       1.13307398     117.03122853      -0.00063732      -0.00079083      -0.00000699        0        0       -1       58       26
Fe      -0.10122603       1.83971383     118.90994066      -0.00061534      -0.00064363       0.00006380        0        0       -1       58       26
Fe       1.31253070       3.71452600     118.21485646      -0.00055612      -0.00072609       0.00010111        0        0       -1       58       26
Fe      -0.09932131       4.41997196     120.09032758      -0.00059452      -0.00049285       0.00031105        0        0       -1       58       26
Fe       1.31451831       6.29590916     119.39465494      -0.00058543      -0.00062337       0.00011587        0        0       -1       58       26
Fe      -0.09748161       7.00016042     121.26790852      -0.00081537      -0.00035822       0.00029253        0        0       -1       58       26
Fe       1.31644898       8.87581272     120.56896923      -0.00085570      -0.00051511       0.00007272        0        0       -1       58       26
Fe      -0.09575529       9.57907985     122.44109994      -0.00086526      -0.00050426       0.00004312        0        0       -1       58       26
Fe       1.31824043      11.45313294     121.73735252      -0.00080933      -0.00048409      -0.00005693        0        0       -1       58       26
Fe      -0.09420287      12.15606492     123.61005994      -0.00077521      -0.00040232       0.00004601        0        0       -1       58       26
Fe       1.31988062      14.02837301     122.90299423      -0.00077701      -0.00034556      -0.00018934        0        0       -1       58       26
Fe      -0.09276440      14.73165610     124.77734160      -0.00082795      -0.00033502       0.00016713        0        0       -1       58       26
Fe       1.32141423      16.60344861     124.07076585      -0.00091945      -0.00027913       0.00012965        0        0       -1       58       26
Fe      16.88854099      17.30724731     125.94648351      -0.00083762      -0.00038267       0.00026089       -1        0       -1       58       26
Fe       1.32278466      19.17959880     125.24234176      -0.00091049      -0.00026975       0.00010966        0        0       -1       58       26
Fe      -0.09031669      19.88358234     127.11832171      -0.00081227      -0.00043047      -0.00021851        0        0       -1       58       26
Fe       1.32400645      21.75683116     126.41613698      -0.00082668      -0.00016858       0.00008286        0        0       -1       58       26
Fe      -0.08929460      22.46060329     128.29157463      -0.00081291      -0.00033091       0.00009032        0        0       -1       58       26
Fe       1.32512039      24.33454852     127.59035234      -0.00088277      -0.00042089      -0.00039718        0        0       -1       58       26
Fe      -0.08839201      25.03795435     129.46512239      -0.00087184      -0.00034767      -0.00001547        0        0       -1       58       26
Fe       1.32610792      26.91208627     128.76350756      -0.00094651      -0.00039890      -0.00018899        0        0       -1       58       26
Fe      -0.08763877      27.61509095     130.63781892      -0.00097731      -0.00032565      -0.00015876        0        0       -1       58       26
Fe       1.32694580      29.48905188     129.93521284      -0.00098324      -0.00023932      -0.00015257        0        0       -1       58       26
Fe      -0.08703166      30.19180723     131.80949034      -0.00100148      -0.00033152      -0.00022407        0        0       -1       58       26
Fe       1.32762426      32.06538673     131.10585378      -0.00096872      -0.00021978       0.00030882        0        0       -1       58       26
Fe      -0.08656478      32.76803453     132.98048792      -0.00092583      -0.00034490       0.00013524        0        0       -1       58       26
Fe       1.31497422      -0.03234831     119.61083916      -0.00076003      -0.00036355       0.00028374        0        0       -1       58       26
Fe      -0.09708515       0.67297627     121.48879244      -0.00078199      -0.00018121       0.00004722        0        0       -1       58       26
Fe       1.31681566       2.54549890     120.78753790      -0.00072381      -0.00046730      -0.00000020        0        0       -1       58       26
Fe      -0.09543331       3.25056689     122.66429221      -0.00085970      -0.00020465      -0.00024599        0        0       -1       58       26
Fe       1.31855439       5.12482533     121.96557165      -0.00085188      -0.00030505      -0.00009047        0        0       -1       58       26
Fe      -0.09390277       5.82925238     123.84066382      -0.00088468      -0.00020737      -0.00005881        0        0       -1       58       26
Fe       1.32018986       7.70409236     123.14149006      -0.00095762      -0.00032995       0.00005116        0        0       -1       58       26
Fe      -0.09249428       8.40781926     125.01530722      -0.00081432      -0.00042787      -0.00016081        0        0       -1       58       26
Fe       1.32167121      10.28231213     124.31394480      -0.00078150      -0.00036045       0.00017646        0        0       -1       58       26
Fe      -0.09122133      10.98550707     126.18735269      -0.00081826      -0.00029306       0.00017162        0        0       -1       58       26
Fe       1.32302328      12.85907463     125.48341814      -0.00078454      -0.00043580      -0.00011058        0        0       -1       58       26
Fe      -0.09008333      13.56210362     127.35722692      -0.00085262      -0.00031347       0.00001154        0        0       -1       58       26
Fe       1.32424706      15.43492262     126.65193064      -0.00083033      -0.00026314       0.00066739        0        0       -1       58       26
Fe      -0.08909680      16.13807244     128.52670195      -0.00082752      -0.00022728       0.00062140        0        0       -1       58       26
Fe       1.32531470      18.01078301     127.82199702      -0.00079249      -0.00038262       0.00034540        0        0       -1       58       26
Fe      -0.08824700      18.71407434     129.69740358      -0.00083097      -0.00042525       0.00026588        0        0       -1       58       26
Fe       1.32625351      20.58717069     128.99391758      -0.00085236      -0.00065244      -0.00052902        0        0       -1       58       26
Fe      -0.08752472      21.29044540     130.86928861      -0.00085160      -0.00058175       0.00001003        0        0       -1       58       26
Fe       1.32705937      23.16405848     130.16688469      -0.00094173      -0.00045651       0.00022203        0        0       -1       58       26
Fe      -0.08694297      23.86716191     132.04207676      -0.00085784      -0.00065901      -0.00014316        0        0       -1       58       26
Fe       1.32772612      25.74103993     131.33987704      -0.00090217      -0.00042598       0.00000729        0        0       -1       58       26
Fe      16.89350777      26.44383206     133.21469776      -0.00084137      -0.00057316       0.00025079       -1        0       -1       58       26
Fe       1.32826163      28.31787149     132.51228565      -0.00087576      -0.00018521       0.00012494        0        0       -1       58       26
Fe      -0.08617447      29.02036336     134.38688546      -0.00080251      -0.00050980       0.00017771        0        0       -1       58       26
Fe       1.32865420      30.89432843     133.68393792      -0.00081505      -0.00056919      -0.00007435        0        0       -1       58       26
Fe      -0.08600077      31.59653287     135.55858562      -0.00081124      -0.00056373       0.00011368        0        0       -1       58       26
Fe       1.32890973      33.47038603     134.85525911      -0.00083836      -0.00056431      -0.00007365        0        0       -1       58       26
Fe       1.32052877       1.37773235     123.36587690      -0.00088995      -0.00012305      -0.00005871        0        0       -1       58       26
Fe      -0.09221534       2.08208874     125.24234176      -0.00091049      -0.00026975       0.00010966        0        0       -1       58       26
Fe       1.32196551       3.95513987     124.54042683      -0.00093279      -0.00002672       0.00003580        0        0       -1       58       26
Fe      -0.09099355       4.65932111     126.41613698      -0.00082668      -0.00016858       0.00008286        0        0       -1       58       26
Fe       1.32327578       6.53332691     125.71556882      -0.00087346      -0.00038547      -0.00032043        0        0       -1       58       26
Fe      -0.08987961       7.23703847     127.59035234      -0.00088277      -0.00042089      -0.00039718        0        0       -1       58       26
Fe       1.32448155       9.11132264     126.88932822      -0.00080401      -0.00030439      -0.00007291        0        0       -1       58       26
Fe      -0.08889208       9.81457622     128.76350756      -0.00094651      -0.00039890      -0.00018899        0        0       -1       58       26
Fe       1.32555211      11.68859331     128.06113731      -0.00088128      -0.00031940      -0.00005463        0        0       -1       58       26
Fe      -0.08805420      12.39154182     129.93521284      -0.00098324      -0.00023932      -0.00015257        0        0       -1       58       26
Fe       1.32645477      14.26505679     129.23140638      -0.00091146      -0.00023791       0.00032471        0        0       -1       58       26
Fe      -0.08737574      14.96787667     131.10585378      -0.00096872      -0.00021978       0.00030882        0        0       -1       58       26