9252
Lattice="16.98 0.0 0.0 0.0 55.74453516 0.0 0.0 0.0 111.46052403" Properties=species:S:1:pos:R:3:force:R:3:map_shift:I:3:n_neighb:I:1:Z:I:1 virial="-228.59706169 -0.0 -0.0 -0.0 -265.07214589 9.4306865 -0.0 9.4306865 -108.15377674" cutoff=5.3 adsorbate_info=T nneightol=1.2 energy=-36984.01667584 pbc="T T T"
Fe      15.56500000      47.60836792       7.22246060       0.00000000      -0.00015097      -0.00002077       -1       -1        0       58       26 
Fe      14.15000000      46.89185805       5.35534737      -0.00000000      -0.00015609       0.00001896       -1       -1        0       58       26 
Fe       1.41500000       4.36465705      83.97105549      -0.00000000       0.00000980      -0.00003137        0        0       -1       52       26 
Fe      -0.00000000       4.96371817      85.84484957      -0.00000000      -0.00006353      -0.00002040        0        0       -1       53       26 
Fe       1.41500000       6.83614275      85.11938112      -0.00000000      -0.00006781       0.00001440        0        0       -1       54       26 
Fe       0.00000000       7.52573954      86.95898826      -0.00000000      -0.00020203      -0.00001730        0        0       -1       55       26 
Fe       1.41500000       9.34293078      86.22000534      -0.00000000       0.00010489      -0.00017512        0        0       -1       58       26 
Fe      -0.00000000      10.09827239      88.13190719      -0.00000000       0.00012592       0.00011605        0        0       -1       58       26 
Fe       1.41500000      12.01950051      87.55174629      -0.00000000       0.00008087       0.00097348        0        0       -1       57       26 
Fe      -0.00000000      12.73425015      89.35988358      -0.00000000      -0.00045982      -0.00074804        0        0       -1       58       26 
Fe       1.41500000      14.60844738      88.61957315      -0.00000000      -0.00035428      -0.00111491        0        0       -1       58       26 
Fe      -0.00000000      15.32462407      90.45155856      -0.00000000       0.00022241       0.00064255        0        0       -1       58       26 
Fe       1.41500000      17.16993657      89.66226490      -0.00000000       0.00001766       0.00031038        0        0       -1       58       26 
Fe      -0.00000000      17.89412863      91.52956823      -0.00000000      -0.00022545      -0.00025169        0        0       -1       58       26 
Fe       1.41500000      19.74806918      90.77554680      -0.00000000      -0.00012823      -0.00012502        0        0       -1       58       26 
Fe      -0.00000000      20.46925634      92.65235650      -0.00000000      -0.00006252       0.00009714        0        0       -1       58       26 
Fe       1.41500000      22.33125716      91.92547466      -0.00000000      -0.00007353       0.00005640        0        0       -1       58       26 
Fe      -0.00000000      23.05190851      93.80229705      -0.00000000      -0.00013311      -0.00007256        0        0       -1       58       26 
Fe       1.41500000      24.92560882      93.09455043      -0.00000000      -0.00014505      -0.00007196        0        0       -1       58       26 
Fe      -0.00000000      25.63898180      94.95789992      -0.00000000      -0.00010361       0.00006713        0        0       -1       58       26 
Fe       1.41500000      27.50218060      94.22438823      -0.00000000      -0.00007978       0.00004807        0        0       -1       58       26 
Fe       1.41500000       0.50807784      85.15085765      -0.00000000      -0.00004192      -0.00000036        0        0       -1       53       26 
Fe       0.00000000       1.17548434      87.09378379      -0.00000000      -0.00006463      -0.00001466        0        0       -1       55       26 
Fe       1.41500000       2.95950468      86.13263768      -0.00000000      -0.00007485       0.00001123        0        0       -1       56       26 
Fe      -0.00000000       3.73172685      88.20126992      -0.00000000      -0.00012371       0.00000823        0        0       -1       56       26 
Fe       1.41500000       5.64031765      87.65862408      -0.00000000      -0.00002972      -0.00005353        0        0       -1       55       26 
Fe       0.00000000       6.35439056      89.50843682      -0.00000000      -0.00001869      -0.00001855        0        0       -1       58       26 
Fe       1.41500000       8.23241186      88.82519919      -0.00000000      -0.00013923       0.00008331        0        0       -1       58       26 
Fe      -0.00000000       8.95560917      90.68941724      -0.00000000      -0.00019155      -0.00006578        0        0       -1       58       26 
Fe       1.41500000      10.83302159      90.00289380      -0.00000000      -0.00008617      -0.00029243        0        0       -1       58       26 
Fe       0.00000000      11.55966647      91.86460926      -0.00000000       0.00002337       0.00020547        0        0       -1       58       26 
Fe       1.41500000      13.45056583      91.18872995      -0.00000000       0.00005664       0.00055896        0        0       -1       58       26 
Fe       0.00000000      14.16643006      93.02949797      -0.00000000      -0.00027319      -0.00039353        0        0       -1       58       26 
Fe       1.41500000      16.03907967      92.29602217      -0.00000000      -0.00025692      -0.00046261        0        0       -1       58       26 
Fe       0.00000000      16.75214836      94.14857256      -0.00000000       0.00000465       0.00028640        0        0       -1       58       26 
Fe       1.41500000      18.61170093      93.39745585      -0.00000000      -0.00003528       0.00018726        0        0       -1       58       26 
Fe       0.00000000      19.32769281      95.26525791      -0.00000000      -0.00017490      -0.00014423        0        0       -1       58       26 
Fe       1.41500000      21.18799159      94.52717213      -0.00000000      -0.00015772      -0.00008942        0        0       -1       58       26 
Fe       0.00000000      21.90570983      96.39983205      -0.00000000      -0.00010079       0.00007574        0        0       -1       58       26 
Fe       1.41500000      23.77018752      95.67517715      -0.00000000      -0.00009112       0.00005964        0        0       -1       58       26 
Fe       0.00000000      24.48801319      97.54621616      -0.00000000      -0.00014810      -0.00006112        0        0       -1       58       26 
Fe       1.41500000      26.35456128      96.82461697      -0.00000000      -0.00015778      -0.00005473        0        0       -1       58       26 
Fe       0.00000000      27.07163744      98.69300256      -0.00000000      -0.00012541       0.00004846        0        0       -1       58       26 
Fe      -0.00000000       0.05381073      89.70996121      -0.00000000      -0.00009394       0.00003878        0        0       -1       58       26 
Fe       1.41500000       1.90631644      88.95088294      -0.00000000      -0.00005283       0.00000608        0        0       -1       56       26 
Fe      -0.00000000       2.61549275      90.85006608      -0.00000000      -0.00007119      -0.00003586        0        0       -1       58       26 
Fe       1.41500000       4.46706095      90.13587763      -0.00000000      -0.00013648       0.00000430        0        0       -1       58       26 
Fe       0.00000000       5.19695693      92.03564214      -0.00000000      -0.00013301       0.00000826        0        0       -1       58       26 
Fe       1.41500000       7.07674544      91.37217863      -0.00000000      -0.00006006      -0.00004861        0        0       -1       58       26 
Fe      -0.00000000       7.80108981      93.24016439      -0.00000000      -0.00007378      -0.00000276        0        0       -1       58       26 
Fe       1.41500000       9.67963391      92.55318476      -0.00000000      -0.00010781       0.00008049        0        0       -1       58       26 
Fe       0.00000000      10.40248327      94.41716821      -0.00000000      -0.00016080      -0.00007311        0        0       -1       58       26 
Fe       1.41500000      12.28219058      93.72365295      -0.00000000      -0.00016634      -0.00022073        0        0       -1       58       26 
Fe      -0.00000000      13.00170959      95.58293797      -0.00000000      -0.00006107       0.00014556        0        0       -1       58       26 
Fe       1.41500000      14.88106179      94.87875344      -0.00000000      -0.00002825       0.00025505        0        0       -1       58       26 
Fe      -0.00000000      15.59544248      96.73377596      -0.00000000      -0.00019525      -0.00017778        0        0       -1       58       26 
Fe       1.41500000      17.46541099      96.00642029      -0.00000000      -0.00020026      -0.00020095        0        0       -1       58       26 
Fe      -0.00000000      18.17944348      97.86745399      -0.00000000      -0.00008783       0.00013055        0        0       -1       58       26 
Fe       1.41500000      20.04344085      97.13293772      -0.00000000      -0.00008556       0.00009631        0        0       -1       58       26 
Fe      -0.00000000      20.75950266      99.00053283      -0.00000000      -0.00016395      -0.00007150        0        0       -1       58       26 
Fe       1.41500000      22.62320415      98.27089149      -0.00000000      -0.00016483      -0.00006021        0        0       -1       58       26 
Fe      -0.00000000      23.34078363     100.14082450      -0.00000000      -0.00013167       0.00004798        0        0       -1       58       26 
Fe       1.41500000      25.20593771      99.41631390      -0.00000000      -0.00011836       0.00004390        0        0       -1       58       26 
Fe      -0.00000000      25.92390652     101.28601516      -0.00000000      -0.00016089      -0.00003378        0        0       -1       58       26 
Fe       1.41500000       0.76769154      91.59522690      -0.00000000      -0.00013470      -0.00003055        0        0       -1       58       26 
Fe       0.00000000       1.48387112      93.47777094      -0.00000000      -0.00011307       0.00004194        0        0       -1       58       26 
Fe       1.41500000       3.33701218      92.74307238      -0.00000000      -0.00007212       0.00000829        0        0       -1       58       26 
Fe       0.00000000       4.06088985      94.62925670      -0.00000000      -0.00010739      -0.00003254        0        0       -1       58       26 
Fe       1.41500000       5.92496771      93.92212723      -0.00000000      -0.00013711      -0.00000560        0        0       -1       58       26 
Fe       0.00000000       6.65080331      95.80209096      -0.00000000      -0.00013218       0.00000647        0        0       -1       58       26 
Fe       1.41500000       8.52496422      95.10945916      -0.00000000      -0.00010935      -0.00003140        0        0       -1       58       26 
Fe       0.00000000       9.24750615      96.97905857      -0.00000000      -0.00011847       0.00000258        0        0       -1       58       26 
Fe       1.41500000      11.12362513      96.28170278      -0.00000000      -0.00011239       0.00005217        0        0       -1       58       26 
Fe       0.00000000      11.84335863      98.14687603      -0.00000000      -0.00015283      -0.00004775        0        0       -1       58       26 
Fe       1.41500000      13.71951693      97.44357483      -0.00000000      -0.00017169      -0.00011813        0        0       -1       58       26 
Fe       0.00000000      14.43656652      99.30562908      -0.00000000      -0.00011730       0.00006913        0        0       -1       58       26 
Fe       1.41500000      16.31018066      98.59264989      -0.00000000      -0.00009216       0.00011311        0        0       -1       58       26 
Fe       0.00000000      17.02549090     100.45409704      -0.00000000      -0.00016979      -0.00007617        0        0       -1       58       26 
Fe       1.41500000      18.89433504      99.73053532      -0.00000000      -0.00018028      -0.00008073        0        0       -1       58       26 
Fe       0.00000000      19.60998301     101.59495820      -0.00000000      -0.00013830       0.00005019        0        0       -1       58       26 
Fe       1.41500000      21.47601144     100.86803128      -0.00000000      -0.00012559       0.00004565        0        0       -1       58       26 
Fe       0.00000000      22.19283374     102.73553766      -0.00000000      -0.00016656      -0.00002591        0        0       -1       58       26 
Fe       1.41500000      24.05839191     102.01012169      -0.00000000      -0.00016813      -0.00002808        0        0       -1       58       26 
Fe       0.00000000      24.77600229     103.87908252      -0.00000000      -0.00015017       0.00001720        0        0       -1       58       26 
Fe       1.41500000      26.64186845     103.15555323      -0.00000000      -0.00015564       0.00002447        0        0       -1       58       26 
Fe       0.00000000      27.35980284     105.02505175      -0.00000000      -0.00018439       0.00000051        0        0       -1       58       26 
Fe      -0.00000000       0.34531389      96.09407281      -0.00000000      -0.00013326      -0.00005715        0        0       -1       58       26 
Fe       1.41500000       2.20308987      95.35709654      -0.00000000      -0.00014625      -0.00003199        0        0       -1       58       26 
Fe      -0.00000000       2.92341333      97.23403407      -0.00000000      -0.00012610       0.00003113        0        0       -1       58       26 
Fe       1.41500000       4.78459179      96.51049578      -0.00000000      -0.00010741       0.00001194        0        0       -1       58       26 
Fe      -0.00000000       5.50723562      98.38837525      -0.00000000      -0.00013731      -0.00002223        0        0       -1       58       26 
Fe       1.41500000       7.37461459      97.67842713      -0.00000000      -0.00014317      -0.00000981        0        0       -1       58       26 
Fe      -0.00000000       8.09674188      99.55256262      -0.00000000      -0.00014095       0.00000572        0        0       -1       58       26 
Fe       1.41500000       9.96867296      98.84859917      -0.00000000      -0.00013873      -0.00001273        0        0       -1       58       26 
Fe      -0.00000000      10.68882525     100.71797980      -0.00000000      -0.00014979       0.00000191        0        0       -1       58       26 
Fe       1.41500000      12.56219003     100.01261102      -0.00000000      -0.00013519       0.00002474        0        0       -1       58       26 
Fe      -0.00000000      13.28047152     101.87882452      -0.00000000      -0.00015342      -0.00001955        0        0       -1       58       26 
Fe       1.41500000      15.15342821     101.16897689      -0.00000000      -0.00016961      -0.00004283        0        0       -1       58       26 
Fe      -0.00000000      15.87030579     103.03335844      -0.00000000      -0.00015789       0.00002561        0        0       -1       58       26 
Fe       1.41500000      17.74132530     102.31726588      -0.00000000      -0.00013602       0.00003900        0        0       -1       58       26 
Fe      -0.00000000      18.45761145     104.18168549      -0.00000000      -0.00016781      -0.00001566        0        0       -1       58       26 
Fe       1.41500000      20.32619953     103.46032417      -0.00000000      -0.00017190      -0.00002075        0        0       -1       58       26 
Fe      -0.00000000      21.04276711     105.32637203      -0.00000000      -0.00015811       0.00000941        0        0       -1       58       26 
Fe       1.41500000      22.90985319     104.60311394      -0.00000000      -0.00016701       0.00001858        0        0       -1       58       26 
Fe      -0.00000000      23.62699542     106.47083574      -0.00000000      -0.00019031       0.00001152        0        0       -1       58       26 
Fe       1.41500000      25.49360181     105.74791578      -0.00000000      -0.00015398      -0.00000766        0        0       -1       58       26 
Fe      -0.00000000      26.21116424     107.61673629      -0.00000000      -0.00015048      -0.00001262        0        0       -1       58       26 
Fe       1.41500000       1.06282902      97.96483513      -0.00000000      -0.00010986       0.00003931        0        0       -1       58       26 
Fe       0.00000000       1.78121520      99.83609372      -0.00000000      -0.00015262      -0.00003503        0        0       -1       58       26 
Fe       1.41500000       3.64378997      99.10930379      -0.00000000      -0.00015393      -0.00002369        0        0       -1       58       26 
Fe       0.00000000       4.36386824     100.98333555      -0.00000000      -0.00014166       0.00001724        0        0       -1       58       26 
Fe       1.41500000       6.22879190     100.26393375      -0.00000000      -0.00013885       0.00001196        0        0       -1       58       26 
Fe       0.00000000       6.94944590     102.13787431      -0.00000000      -0.00016306      -0.00000696        0        0       -1       58       26 
Fe       1.41500000       8.81765515     101.42525442      -0.00000000      -0.00015133      -0.00000928        0        0       -1       58       26 
Fe       0.00000000       9.53766402     103.29693616      -0.00000000      -0.00014850       0.00000170        0        0       -1       58       26 
Fe       1.41500000      11.40820257     102.58714305      -0.00000000      -0.00016290       0.00000155        0        0       -1       58       26 
Fe       0.00000000      12.12708862     104.45608077      -0.00000000      -0.00017515       0.00000341        0        0       -1       58       26 
Fe       1.41500000      13.99846205     103.74538725      -0.00000000      -0.00015260       0.00000507        0        0       -1       58       26 
Fe       0.00000000      14.71625476     105.61222857      -0.00000000      -0.00016393       0.00000157        0        0       -1       58       26 
Fe       1.41500000      16.58729068     104.89855107      -0.00000000      -0.00017190      -0.00000385        0        0       -1       58       26 
Fe      16.98000000      17.30433904     106.76436311      -0.00000000      -0.00016804      -0.00000039       -1        0       -1       58       26 
Fe       1.41500000      19.17420045     106.04701241      -0.00000000      -0.00017691       0.00001003        0        0       -1       58       26 
Fe       0.00000000      19.89097714     107.91300329      -0.00000000      -0.00019216       0.00002054        0        0       -1       58       26 
Fe       1.41500000      21.75956033     107.19294063      -0.00000000      -0.00015297       0.00000135        0        0       -1       58       26 
Fe       0.00000000      22.47647947     109.05991736      -0.00000000      -0.00015475      -0.00001704        0        0       -1       58       26 
Fe       1.41500000      24.34419252     108.33873068      -0.00000000      -0.00020870       0.00000656        0        0       -1       58       26 
Fe       0.00000000      25.06139908     110.20680487      -0.00000000      -0.00020260       0.00003332        0        0       -1       58       26 
Fe       1.41500000      26.92867374     109.48560797      -0.00000000      -0.00014405       0.00000862        0        0       -1       58       26 
Fe       1.41500000      -0.08285422     100.56231598      -0.00000000      -0.00016323      -0.00003455        0        0       -1       58       26 
Fe      -0.00000000       0.63521230     102.43210991      -0.00000000      -0.00014394       0.00002313        0        0       -1       58       26 
Fe       1.41500000       2.49989647     101.70748196      -0.00000000      -0.00014470       0.00002376        0        0       -1       58       26 
Fe      -0.00000000       3.21862474     103.57882926      -0.00000000      -0.00017467      -0.00000536        0        0       -1       58       26 
Fe       1.41500000       5.08357025     102.85644559      -0.00000000      -0.00015444      -0.00001146        0        0       -1       58       26 
Fe      -0.00000000       5.80289096     104.72883236      -0.00000000      -0.00014979      -0.00000238        0        0       -1       58       26 
Fe       1.41500000       7.66936924     104.01065661      -0.00000000      -0.00017188       0.00000933        0        0       -1       58       26 
Fe      -0.00000000       8.38874599     105.88259012      -0.00000000      -0.00018299       0.00001046        0        0       -1       58       26 
Fe       1.41500000      10.25705396     105.16789062      -0.00000000      -0.00015684      -0.00000424        0        0       -1       58       26 
Fe      -0.00000000      10.97595369     107.03830047      -0.00000000      -0.00016539      -0.00000029        0        0       -1       58       26 
Fe       1.41500000      12.84556992     106.32484002      -0.00000000      -0.00017561       0.00000823        0        0       -1       58       26 
Fe      -0.00000000      13.56374780     108.19345578      -0.00000000      -0.00017503       0.00000003        0        0       -1       58       26 
Fe       1.41500000      15.43389999     107.47930330      -0.00000000      -0.00018277       0.00000110        0        0       -1       58       26 
Fe      -0.00000000      16.15140705     109.34653708      -0.00000000      -0.00019132       0.00002188        0        0       -1       58       26 
Fe       1.41500000      18.02140752     108.63064354      -0.00000000      -0.00015502       0.00000907        0        0       -1       58       26 
Fe      -0.00000000      18.73844753     110.49727425      -0.00000000      -0.00016149      -0.00001799        0        0       -1       58       26 
Fe       1.41500000      20.60784762     109.77948701      -0.00000000      -0.00021272       0.00000180        0        0       -1       58       26 
Fe       1.41500000      23.19345321     110.92722147      -0.00000000      -0.00014570       0.00001462        0        0       -1       58       26 
Fe       1.41500000       1.35338358     104.30215316      -0.00000000      -0.00015558      -0.00001317        0        0       -1       58       26 
Fe       0.00000000       2.07154138     106.17231395      -0.00000000      -0.00014981      -0.00000708        0        0       -1       58       26 
Fe       1.41500000       3.93725958     105.45003896      -0.00000000      -0.00018566       0.00000905        0        0       -1       58       26 
Fe       0.00000000       4.65575114     107.32108613      -0.00000000      -0.00019094       0.00002310        0        0       -1       58       26 
Fe       1.41500000       6.52188388     106.60065388      -0.00000000      -0.00015163       0.00000410        0        0       -1       58       26 
Fe       0.00000000       7.24059717     108.47204000      -0.00000000      -0.00016941      -0.00001628        0        0       -1       58       26 
Fe       1.41500000       9.10769574     107.75390373      -0.00000000      -0.00018862      -0.00000046        0        0       -1       58       26 
Fe       0.00000000       9.82630988     109.62475773      -0.00000000      -0.00017523       0.00001860        0        0       -1       58       26 
Fe       1.41500000      11.69447807     108.90828732      -0.00000000      -0.00017849       0.00000908        0        0       -1       58       26 
Fe       0.00000000      12.41269079     110.77795416      -0.00000000      -0.00019476       0.00000462        0        0       -1       58       26 
Fe       1.41500000      14.28166650     110.06193222      -0.00000000      -0.00016413       0.00000466        0        0       -1       58       26 
Fe       1.41500000      16.86874793     111.21386998      -0.00000000      -0.00020793       0.00000325        0        0       -1       58       26 
Fe       1.41500000       0.20540970     106.89456178      -0.00000000      -0.00019888       0.00000954        0        0       -1       58       26 
Fe      -0.00000000       0.92320842     108.76410941      -0.00000000      -0.00019966       0.00002834        0        0       -1       58       26 
Fe       1.41500000       2.78963068     108.04252371      -0.00000000      -0.00014615       0.00000709        0        0       -1       58       26 
Fe      -0.00000000       3.50763639     109.91274438      -0.00000000      -0.00016940      -0.00002399        0        0       -1       58       26 
Fe       1.41500000       5.37409546     109.19197263      -0.00000000      -0.00020267      -0.00000972        0        0       -1       58       26 
Fe      -0.00000000       6.09229869     111.06271466      -0.00000000      -0.00017534       0.00003342        0        0       -1       58       26 
Fe       1.41500000       7.95907249     110.34309215      -0.00000000      -0.00016963       0.00002621        0        0       -1       58       26 
Fe       1.41500000       1.64093316     110.63370478      -0.00000000      -0.00020919      -0.00000866        0        0       -1       58       26 
Fe       0.00000000       8.70880337      84.14522532      -0.00000000      -0.00008092       0.00005475        0        0       -1       60       26 
Fe       1.41500000      10.69625748      83.97466876      -0.00000000       0.00020949       0.00010369        0        0       -1       53       26 
Fe      -0.00000000      11.25295135      85.79113170      -0.00000000      -0.00070214      -0.00062419        0        0       -1       53       26 
Fe       1.41500000      13.12322052      85.08137886      -0.00000000      -0.00039427      -0.00308271        0        0       -1       53       26 
Fe       0.00000000      13.91542255      86.79994731      -0.00000000       0.00082433       0.00160609        0        0       -1       55       26 
Fe       1.41500000      15.70434321      85.89493795      -0.00000000       0.00007812       0.00031669        0        0       -1       54       26 
Fe       0.00000000      16.42641374      87.78759436      -0.00000000      -0.00037890      -0.00032426        0        0       -1       57       26 
Fe       1.41500000      18.26429667      87.06707983      -0.00000000      -0.00003728      -0.00013839        0        0       -1       55       26 
Fe       0.00000000      19.02691474      88.89866299      -0.00000000       0.00000233       0.00011118        0        0       -1       56       26 
Fe       1.41500000      20.85708490      88.13039982      -0.00000000      -0.00007832       0.00002300        0        0       -1       56       26 
Fe       0.00000000      21.60404323      90.03991002      -0.00000000      -0.00011535      -0.00005785        0        0       -1       58       26 
Fe       1.41500000      23.50282473      89.39461314      -0.00000000      -0.00011706      -0.00007960        0        0       -1       58       26 
Fe       0.00000000      24.21416659      91.23801916      -0.00000000      -0.00007692       0.00007062        0        0       -1       58       26 
Fe       1.41500000      26.08334087      90.49590282      -0.00000000      -0.00005952       0.00005880        0        0       -1       58       26 
Fe       0.00000000      26.79054111      92.35732606      -0.00000000      -0.00011315      -0.00007157        0        0       -1       58       26 
Fe      -0.00000000      14.96309504      83.96289763      -0.00000000      -0.00021531      -0.00010752        0        0       -1       58       26 
Fe      -0.00000000      17.58808246      85.14211825      -0.00000000      -0.00001781       0.00006345        0        0       -1       55       26 
Fe      15.56500000      45.02288547       6.07390207       0.00000000      -0.00019242       0.00002314       -1       -1        0       58       26 
Fe      -0.00000000      20.03343443      86.11025679      -0.00000000      -0.00006359      -0.00000590        0        0       -1       58       26 
Fe       1.41500000      22.03044423      85.82519432      -0.00000000      -0.00007525      -0.00005759        0        0       -1       53       26 
Fe      -0.00000000      22.78864170      87.58009195      -0.00000000      -0.00005317       0.00004508        0        0       -1       55       26 
Fe       1.41500000      24.68933273      86.81533632      -0.00000000      -0.00003161       0.00005669        0        0       -1       53       26 
Fe      -0.00000000      25.37856763      88.64691193      -0.00000000      -0.00009589      -0.00007755        0        0       -1       58       26 
Fe       1.41500000      27.20289380      87.81551314      -0.00000000      -0.00009954      -0.00002900        0        0       -1       55       26 
Fe       0.00000000      21.39070531      83.98485630      -0.00000000       0.00001584      -0.00000002        0        0       -1       52       26 
Fe       0.00000000      23.88579733      85.08699253      -0.00000000      -0.00005795      -0.00007705        0        0       -1       53       26 
Fe       1.41500000      25.75744093      83.96349320      -0.00000000      -0.00000670      -0.00002570        0        0       -1       58       26 
Fe       0.00000000      26.48578306      85.91228669      -0.00000000      -0.00005102       0.00001397        0        0       -1       54       26 
Fe       0.00000000      -0.22613491     111.35456392      -0.00000000      -0.00016947      -0.00002322        0        0       -1       58       26 
Fe       0.00000000      11.14745595      82.13635850      -0.00000000      -0.00047224       0.00027494        0        0       -1       53       26 