2688
Lattice="16.98 0.0 0.0 0.0 30.48003281 0.0 0.0 0.0 59.44753269" Properties=species:S:1:pos:R:3:force:R:3:map_shift:I:3:n_neighb:I:1:Z:I:1 nneightol=1.2 virial="-86.51566199 1.3e-07 -5e-08 1.3e-07 -56.45020003 1.6e-07 -5e-08 1.6e-07 -28.62715278" energy=-10709.25105116 cutoff=5.3 pbc="T T T"
Fe       0.14276339      -0.11999663      44.43483118      -0.00000000      -0.00002170      -0.00001684        0        0       -1       51       26
Fe      14.29276269      18.38756462      22.19696838       0.00000005       0.00011506      -0.00000060       -1       -1        0       58       26
Fe      15.70776274      16.56205984      21.38603664       0.00000005       0.00011206       0.00000127       -1       -1        0       58       26
Fe       0.14276367       5.24658432      46.29661017      -0.00000002      -0.00007937      -0.00001652        0        0       -1       53       26
Fe       1.55776374       7.11400152      45.57343283      -0.00000003      -0.00008102      -0.00000942        0        0       -1       53       26
Fe       0.14276380       7.90931645      47.31000180      -0.00000003      -0.00009013      -0.00000216        0        0       -1       53       26
Fe       1.55776369       9.65495680      46.38756242      -0.00000003      -0.00006814      -0.00001471        0        0       -1       55       26
Fe       0.14276385      10.51352522      48.22897272      -0.00000004      -0.00008699      -0.00001248        0        0       -1       57       26
Fe       1.55776379      12.34842443      47.39103021      -0.00000003      -0.00008815      -0.00000462        0        0       -1       55       26
Fe       0.14276392      13.13300903      49.25226808      -0.00000004      -0.00010584      -0.00000462        0        0       -1       59       26
Fe       1.55776387      14.96481981      48.44996806      -0.00000004      -0.00009901      -0.00000690        0        0       -1       58       26
Fe       1.55776359       1.11926100      45.88460178      -0.00000002      -0.00005740       0.00001189        0        0       -1       56       26
Fe       0.14276379       1.57850115      47.79929133      -0.00000003      -0.00008595       0.00000034        0        0       -1       58       26
Fe       1.55776372       3.37687456      46.82912158      -0.00000003      -0.00008998       0.00000324        0        0       -1       58       26
Fe       0.14276390       4.17490465      48.76006606      -0.00000004      -0.00010864       0.00000325        0        0       -1       56       26
Fe       1.55776384       6.04884818      48.08358242      -0.00000004      -0.00007554      -0.00000346        0        0       -1       57       26
Fe       0.14276397       6.84758797      49.88771508      -0.00000005      -0.00009632      -0.00001296        0        0       -1       58       26
Fe       1.55776392       8.70156293      49.10214926      -0.00000004      -0.00011171      -0.00000682        0        0       -1       58       26
Fe       0.14276403       9.48584204      50.91472599      -0.00000005      -0.00011839       0.00000330        0        0       -1       58       26
Fe       1.55776398      11.30863411      50.07300373      -0.00000004      -0.00010172      -0.00000834        0        0       -1       58       26
Fe       0.14276409      12.09246819      51.92073473      -0.00000005      -0.00011506      -0.00000060        0        0       -1       58       26
Fe       1.55776405      13.91797296      51.10980299      -0.00000005      -0.00011207       0.00000127        0        0       -1       58       26
Fe       0.14276415      14.70780414      52.96303256      -0.00000006      -0.00011881      -0.00000406        0        0       -1       58       26
Fe       0.14276400       0.50930527      50.32629829      -0.00000005      -0.00011252       0.00000359        0        0       -1       58       26
Fe       1.55776394       2.37046594      49.58748533      -0.00000005      -0.00009294       0.00000293        0        0       -1       56       26
Fe       0.14276406       3.15189548      51.41660732      -0.00000006      -0.00010506      -0.00000101        0        0       -1       58       26
Fe       1.55776402       4.98579411      50.62215178      -0.00000005      -0.00012019      -0.00000041        0        0       -1       58       26
Fe       0.14276412       5.78322583      52.46784264      -0.00000006      -0.00012532       0.00000256        0        0       -1       58       26
Fe       1.55776408       7.63771882      51.70711381      -0.00000006      -0.00010524      -0.00000165        0        0       -1       58       26
Fe       0.14276417       8.42274602      53.53550225      -0.00000006      -0.00011787      -0.00000145        0        0       -1       58       26
Fe       1.55776413      10.26541339      52.74189834      -0.00000006      -0.00012316       0.00000139        0        0       -1       58       26
Fe       0.14276421      11.04792213      54.57583654      -0.00000007      -0.00012433       0.00000040        0        0       -1       58       26
Fe       1.55776418      12.87852188      53.76639941      -0.00000006      -0.00012476      -0.00000260        0        0       -1       58       26
Fe       0.14276425      13.66630899      55.61042606      -0.00000007      -0.00012359       0.00000467        0        0       -1       58       26
Fe       1.55776411       1.30373396      52.17874083      -0.00000006      -0.00012269       0.00000144        0        0       -1       58       26
Fe       0.14276420       2.09644096      54.02498590      -0.00000007      -0.00012523       0.00000442        0        0       -1       58       26
Fe       1.55776416       3.94158123      53.25125134      -0.00000007      -0.00011469      -0.00000097        0        0       -1       58       26
Fe       0.14276424       4.73054683      55.08921649      -0.00000007      -0.00011964       0.00000203        0        0       -1       58       26
Fe       1.55776421       6.57403978      54.30862573      -0.00000007      -0.00012522       0.00000332        0        0       -1       58       26
Fe       0.14276427       7.36247595      56.14787702      -0.00000007      -0.00012657       0.00000071        0        0       -1       58       26
Fe       1.55776424       9.20773584      55.36884555      -0.00000007      -0.00012288       0.00000010        0        0       -1       58       26
Fe       0.14276429       9.99391147      57.20506267      -0.00000008      -0.00011977       0.00000290        0        0       -1       58       26
Fe       1.55776427      11.83321294      56.41313424      -0.00000007      -0.00012348       0.00000511        0        0       -1       58       26
Fe       0.14276430      12.62005223      58.25266533      -0.00000008      -0.00012419       0.00000128        0        0       -1       58       26
Fe       1.55776429      14.45448443      57.45360638      -0.00000008      -0.00012494      -0.00000114        0        0       -1       58       26
Fe       1.55776423       0.25875178      54.81103924      -0.00000007      -0.00012087       0.00000265        0        0       -1       58       26
Fe       0.14276428       1.04864959      56.65602467      -0.00000007      -0.00012339      -0.00000115        0        0       -1       58       26
Fe       1.55776426       2.88708684      55.86817374      -0.00000007      -0.00012552       0.00000267        0        0       -1       58       26
Fe       0.14276430       3.67609669      57.70964165      -0.00000007      -0.00012672       0.00000279        0        0       -1       58       26
Fe       1.55776428       5.51885729      56.92822999      -0.00000007      -0.00012093      -0.00000082        0        0       -1       58       26
Fe       0.14276430       6.30686469      58.76731427      -0.00000007      -0.00011456       0.00000052        0        0       -1       58       26
Fe       1.55776430       8.15038815      57.98670314      -0.00000008      -0.00012596       0.00000602        0        0       -1       58       26
Fe       1.55776431      10.78109578      59.04332017      -0.00000008      -0.00011836       0.00000073        0        0       -1       58       26
Fe       1.55776430       1.83736482      58.49898004      -0.00000008      -0.00011793       0.00000087        0        0       -1       58       26
Fe      14.29276264      15.77222867      23.23926621       0.00000006       0.00011880      -0.00000406       -1       -1        0       58       26
Fe       0.14276363      11.46852359      45.62842447      -0.00000002      -0.00007034      -0.00001315        0        0       -1       55       26
Fe      14.29276279      29.97072754      20.60253195       0.00000005       0.00011252       0.00000359       -1       -1        0       58       26
Fe       0.14276376      14.16816166      46.59225626      -0.00000003      -0.00007754      -0.00000731        0        0       -1       57       26
Fe       0.14276431       0.00258503      59.29646911      -0.00000008      -0.00012379       0.00000483        0        0       -1       58       26
Fe       0.14276339       2.78844355      44.43453014       0.00000000      -0.00002142       0.00001064        0        0       -1       59       26
Fe       1.55776339       4.76436992      44.43511055       0.00000000      -0.00001993      -0.00002329        0        0       -1       56       26
Fe       0.14276311       5.24419430      42.57310417       0.00000002       0.00004260      -0.00000876        0        0       -1       53       26
Fe       1.55776305       7.11195622      43.29615238       0.00000003       0.00003103      -0.00000370        0        0       -1       53       26
Fe       0.14276298       7.90684573      41.55968564       0.00000003       0.00004677      -0.00001308        0        0       -1       53       26
Fe       1.55776309       9.65287971      42.48207413       0.00000002       0.00003921      -0.00000356        0        0       -1       55       26
Fe       0.14276293      10.51060198      40.64054883       0.00000004       0.00006449       0.00000030        0        0       -1       57       26
Fe       1.55776299      12.34585343      41.47844939       0.00000004       0.00004838      -0.00000167        0        0       -1       55       26
Fe       0.14276286      13.12971111      39.61714167       0.00000005       0.00007057       0.00000182        0        0       -1       59       26
Fe       1.55776291      14.96175968      40.41943549       0.00000004       0.00006427       0.00000188        0        0       -1       58       26
Fe       1.55776319       1.11760390      42.98445687       0.00000002       0.00002224       0.00001721        0        0       -1       56       26
Fe       0.14276299       1.57579614      41.06981628       0.00000003       0.00005555       0.00000767        0        0       -1       58       26
Fe       1.55776306       3.37463444      42.04005136       0.00000003       0.00004300       0.00000991        0        0       -1       58       26
Fe       0.14276288       4.17182176      40.10923770       0.00000004       0.00005812       0.00000235        0        0       -1       56       26
Fe       1.55776295       6.04605518      40.78599069       0.00000004       0.00006351      -0.00000744        0        0       -1       57       26
Fe       0.14276281       6.84409718      38.98171575       0.00000005       0.00008371       0.00000551        0        0       -1       58       26
Fe       1.55776286       8.69832179      39.76736873       0.00000004       0.00006328      -0.00000302        0        0       -1       58       26
Fe       0.14276275       9.48199406      37.95468462       0.00000006       0.00008305      -0.00000721        0        0       -1       58       26
Fe       1.55776280      11.30503677      38.79641486       0.00000005       0.00008081       0.00000179        0        0       -1       58       26
Fe       0.14276269      12.08829627      36.94859261       0.00000006       0.00009364      -0.00000048        0        0       -1       58       26
Fe       1.55776273      13.91404573      37.75951529       0.00000006       0.00009189       0.00000142        0        0       -1       58       26
Fe       0.14276264      14.70338229      35.90621684       0.00000006       0.00010099       0.00000689        0        0       -1       58       26
Fe       0.14276279       0.50562465      38.54297608       0.00000005       0.00007631       0.00000184        0        0       -1       58       26
Fe       1.55776284       2.36714300      39.28166842       0.00000004       0.00007831       0.00000972        0        0       -1       56       26
Fe       0.14276272       3.14795679      37.45255071       0.00000005       0.00009493       0.00001172        0        0       -1       58       26
Fe       1.55776276       4.98208151      38.24712360       0.00000005       0.00007289       0.00000471        0        0       -1       58       26
Fe       0.14276266       5.77898690      36.40138062       0.00000006       0.00008975       0.00000004        0        0       -1       58       26
Fe       1.55776270       7.63365430      37.16221407       0.00000006       0.00009886      -0.00000175        0        0       -1       58       26
Fe       0.14276261       8.41821742      35.33375487       0.00000007       0.00010528       0.00000583        0        0       -1       58       26
Fe       1.55776265      10.26105751      36.12741981       0.00000006       0.00009598      -0.00000023        0        0       -1       58       26
Fe       0.14276257      11.04317513      34.29340762       0.00000007       0.00010388      -0.00000263        0        0       -1       58       26
Fe       1.55776260      12.87390955      35.10285962       0.00000007       0.00010578       0.00000407        0        0       -1       58       26
Fe       0.14276253      13.66138930      33.25878678       0.00000007       0.00011796       0.00000335        0        0       -1       58       26
Fe       1.55776268       1.29952328      36.69046947       0.00000006       0.00008881       0.00000577        0        0       -1       58       26
Fe       0.14276259       2.09182024      34.84418526       0.00000006       0.00010345       0.00000275        0        0       -1       58       26
Fe       1.55776262       3.93715950      35.61789935       0.00000006       0.00010567       0.00000498        0        0       -1       58       26
Fe       0.14276255       4.72575285      33.77991816       0.00000007       0.00011019       0.00000698        0        0       -1       58       26
Fe       1.55776258       6.56938202      34.56055590       0.00000007       0.00009988       0.00000533        0        0       -1       58       26
Fe       0.14276252       7.35753028      32.72127174       0.00000007       0.00010817      -0.00000053        0        0       -1       58       26
Fe       1.55776254       9.20287332      33.50035051       0.00000007       0.00011717       0.00000185        0        0       -1       58       26
Fe       0.14276250       9.98884144      31.66409854       0.00000007       0.00012491       0.00000568        0        0       -1       58       26
Fe       1.55776251      11.82820424      32.45606254       0.00000007       0.00010685      -0.00000207        0        0       -1       58       26
Fe       0.14276248      12.61490526      30.61650210       0.00000007       0.00011249      -0.00000211        0        0       -1       58       26
Fe       1.55776249      14.44937521      31.41557565       0.00000007       0.00012422       0.00000525        0        0       -1       58       26
Fe       1.55776256       0.25396470      34.05816129       0.00000007       0.00010746       0.00000142        0        0       -1       58       26
Fe       0.14276251       1.04361437      32.21314592       0.00000007       0.00011147       0.00000371        0        0       -1       58       26
Fe       1.55776253       2.88216283      33.00097412       0.00000007       0.00011157       0.00000701        0        0       -1       58       26
Fe       0.14276249       3.67099701      31.15949453       0.00000008       0.00011656       0.00000369        0        0       -1       58       26
Fe       1.55776250       5.51382774      31.94089181       0.00000007       0.00011972       0.00000458        0        0       -1       58       26
Fe       0.14276248       6.30173088      30.10180626       0.00000008       0.00012542       0.00000500        0        0       -1       58       26
Fe       1.55776249       8.14528303      30.88242693       0.00000007       0.00011018      -0.00000086        0        0       -1       58       26
Fe       1.55776248      10.77594627      29.82582120       0.00000007       0.00012811       0.00000431        0        0       -1       58       26
Fe       1.55776248       1.83221051      30.37017853       0.00000008       0.00011795       0.00000369        0        0       -1       58       26
Fe       0.14276339       8.95242753      44.43504543      -0.00000000      -0.00002677      -0.00002131        0        0       -1       58       26
Fe       0.14276315      11.46685969      43.24146426       0.00000002       0.00002083      -0.00001446        0        0       -1       55       26
Fe       1.55776339      13.11190088      44.43438372      -0.00000000      -0.00001792       0.00001559        0        0       -1       62       26
Fe       0.14276303      14.16600820      42.27743125       0.00000003       0.00004017      -0.00000317        0        0       -1       57       26
Fe       0.14276339       0.11999663      14.71106484       0.00000000       0.00002170      -0.00001685        0        0        0       51       26
Fe      15.70776284      28.10956687      19.86371899       0.00000005       0.00009293       0.00000292       -1       -1        0       56       26
Fe      14.29276272      27.32813733      21.69284098       0.00000006       0.00010505      -0.00000101       -1       -1        0       58       26
Fe       0.14276312       9.99343208      16.57284383       0.00000002       0.00007936      -0.00001652        0        0        0       53       26
Fe       1.55776305       8.12601489      15.84966648       0.00000003       0.00008102      -0.00000942        0        0        0       53       26
Fe       0.14276298       7.33069996      17.58623546       0.00000004       0.00009013      -0.00000216        0        0        0       53       26
Fe       1.55776310       5.58505960      16.66379607       0.00000003       0.00006813      -0.00001471        0        0        0       55       26
Fe       0.14276293       4.72649118      18.50520637       0.00000004       0.00008699      -0.00001248        0        0        0       57       26
Fe       1.55776299       2.89159198      17.66726387       0.00000003       0.00008815      -0.00000462        0        0        0       55       26
Fe       0.14276286       2.10700738      19.52850174       0.00000004       0.00010584      -0.00000462        0        0        0       59       26
Fe       1.55776292       0.27519659      18.72620171       0.00000004       0.00009901      -0.00000690        0        0        0       58       26
Fe       1.55776319      14.12075540      16.16083544       0.00000002       0.00005740       0.00001189        0        0        0       56       26
Fe       0.14276300      13.66151525      18.07552498       0.00000003       0.00008595       0.00000034        0        0        0       58       26
Fe       1.55776307      11.86314185      17.10535524       0.00000003       0.00008998       0.00000324        0        0        0       58       26
Fe       0.14276289      11.06511175      19.03629972       0.00000004       0.00010865       0.00000325        0        0        0       56       26
Fe       1.55776295       9.19116822      18.35981607       0.00000004       0.00007554      -0.00000346        0        0        0       57       26
Fe       0.14276282       8.39242844      20.16394874       0.00000005       0.00009632      -0.00001296        0        0        0       58       26
Fe       1.55776287       6.53845347      19.37838292       0.00000004       0.00011171      -0.00000682        0        0        0       58       26
Fe       0.14276275       5.75417436      21.19095964       0.00000005       0.00011839       0.00000330        0        0        0       58       26
Fe       1.55776280       3.93138230      20.34923739       0.00000004       0.00010172      -0.00000834        0        0        0       58       26
Fe       0.14276269       3.14754821      22.19696838       0.00000005       0.00011506      -0.00000060        0        0        0       58       26
Fe       1.55776274       1.32204344      21.38603664       0.00000005       0.00011206       0.00000127        0        0        0       58       26
Fe       0.14276264       0.53221227      23.23926621       0.00000006       0.00011880      -0.00000406        0        0        0       58       26
Fe       0.14276279      14.73071113      20.60253195       0.00000005       0.00011252       0.00000359        0        0        0       58       26
Fe       1.55776284      12.86955046      19.86371899       0.00000005       0.00009293       0.00000292        0        0        0       56       26
Fe       0.14276272      12.08812093      21.69284098       0.00000006       0.00010505      -0.00000101        0        0        0       58       26
Fe       1.55776276      10.25422230      20.89838544       0.00000005       0.00012020      -0.00000041        0        0        0       58       26
Fe       0.14276266       9.45679057      22.74407629       0.00000006       0.00012532       0.00000256        0        0        0       58       26
Fe       1.55776270       7.60229758      21.98334746       0.00000006       0.00010524      -0.00000165        0        0        0       58       26
Fe       0.14276261       6.81727039      23.81173591       0.00000006       0.00011787      -0.00000145        0        0        0       58       26
Fe       1.55776265       4.97460302      23.01813199       0.00000006       0.00012316       0.00000139        0        0        0       58       26
Fe       0.14276257       4.19209428      24.85207020       0.00000007       0.00012433       0.00000040        0        0        0       58       26
Fe       1.55776260       2.36149453      24.04263306       0.00000006       0.00012476      -0.00000260        0        0        0       58       26
Fe       0.14276253       1.57370741      25.88665971       0.00000007       0.00012359       0.00000467        0        0        0       58       26
Fe       1.55776268      13.93628244      22.45497448       0.00000006       0.00012270       0.00000144        0        0        0       58       26
Fe       0.14276259      13.14357545      24.30121956       0.00000007       0.00012523       0.00000442        0        0        0       58       26
Fe       1.55776262      11.29843517      23.52748499       0.00000007       0.00011469      -0.00000097        0        0        0       58       26
Fe       0.14276255      10.50946957      25.36545014       0.00000007       0.00011964       0.00000203        0        0        0       58       26
Fe       1.55776258       8.66597662      24.58485938       0.00000007       0.00012522       0.00000332        0        0        0       58       26
Fe       0.14276252       7.87754045      26.42411067       0.00000007       0.00012657       0.00000071        0        0        0       58       26
Fe       1.55776254       6.03228056      25.64507920       0.00000007       0.00012288       0.00000010        0        0        0       58       26
Fe       0.14276250       5.24610493      27.48129632       0.00000008       0.00011977       0.00000290        0        0        0       58       26
Fe       1.55776251       3.40680346      26.68936789       0.00000007       0.00012348       0.00000511        0        0        0       58       26
Fe       0.14276248       2.61996417      28.52889898       0.00000008       0.00012419       0.00000128        0        0        0       58       26
Fe       1.55776249       0.78553197      27.72984004       0.00000008       0.00012494      -0.00000114        0        0        0       58       26
Fe       1.55776256      14.98126462      25.08727289       0.00000007       0.00012087       0.00000266        0        0        0       58       26
Fe       0.14276251      14.19136681      26.93225832       0.00000007       0.00012339      -0.00000115        0        0        0       58       26
Fe       1.55776253      12.35292956      26.14440739       0.00000007       0.00012551       0.00000266        0        0        0       58       26
Fe       0.14276249      11.56391972      27.98587530       0.00000007       0.00012672       0.00000279        0        0        0       58       26
Fe       1.55776250       9.72115911      27.20446364       0.00000007       0.00012093      -0.00000082        0        0        0       58       26
Fe       0.14276248       8.93315172      29.04354793       0.00000007       0.00011456       0.00000052        0        0        0       58       26
Fe       1.55776249       7.08962826      28.26293680       0.00000008       0.00012596       0.00000602        0        0        0       58       26
Fe       1.55776248       4.45892062      29.31955382       0.00000008       0.00011836       0.00000073        0        0        0       58       26
Fe       1.55776248      13.40265159      28.77521369       0.00000008       0.00011793       0.00000087        0        0        0       58       26
Fe      15.70776276      25.49423870      20.89838544       0.00000005       0.00012020      -0.00000041       -1       -1        0       58       26
Fe       0.14276316       3.77149281      15.90465812       0.00000002       0.00007034      -0.00001315        0        0        0       55       26
Fe      14.29276266      24.69680698      22.74407629       0.00000006       0.00012532       0.00000256       -1       -1        0       58       26
Fe       0.14276303       1.07185474      16.86848991       0.00000003       0.00007755      -0.00000731        0        0        0       57       26
Fe       0.14276248      -0.00258503      29.57270277       0.00000008       0.00012379       0.00000483        0        0        0       58       26
Fe       0.14276339      12.45157285      14.71076380      -0.00000000       0.00002142       0.00001064        0        0        0       59       26
Fe       1.55776339      10.47564648      14.71134421      -0.00000000       0.00001993      -0.00002329        0        0        0       56       26
Fe       0.14276367       9.99582210      12.84933782      -0.00000002      -0.00004260      -0.00000877        0        0        0       53       26
Fe       1.55776374       8.12806018      13.57238603      -0.00000003      -0.00003103      -0.00000370        0        0        0       53       26
Fe       0.14276380       7.33317067      11.83591929      -0.00000003      -0.00004677      -0.00001308        0        0        0       53       26
Fe       1.55776369       5.58713669      12.75830778      -0.00000002      -0.00003921      -0.00000355        0        0        0       55       26
Fe       0.14276386       4.72941443      10.91678248      -0.00000004      -0.00006449       0.00000031        0        0        0       57       26
Fe       1.55776380       2.89416297      11.75468305      -0.00000004      -0.00004837      -0.00000167        0        0        0       55       26
Fe       0.14276393       2.11030530       9.89337532      -0.00000005      -0.00007057       0.00000181        0        0        0       59       26
Fe       1.55776387       0.27825672      10.69566915      -0.00000004      -0.00006427       0.00000188        0        0        0       58       26
Fe       1.55776359      14.12241250      13.26069053      -0.00000002      -0.00002224       0.00001721        0        0        0       56       26
Fe       0.14276379      13.66422026      11.34604994      -0.00000003      -0.00005555       0.00000766        0        0        0       58       26
Fe       1.55776372      11.86538196      12.31628501      -0.00000003      -0.00004301       0.00000991        0        0        0       58       26
Fe       0.14276390      11.06819464      10.38547135      -0.00000004      -0.00005812       0.00000236        0        0        0       56       26
Fe       1.55776384       9.19396122      11.06222435      -0.00000004      -0.00006351      -0.00000744        0        0        0       57       26
Fe       0.14276397       8.39591923       9.25794941      -0.00000005      -0.00008371       0.00000551        0        0        0       58       26
Fe       1.55776392       6.54169461      10.04360239      -0.00000004      -0.00006328      -0.00000302        0        0        0       58       26
Fe       0.14276404       5.75802234       8.23091827      -0.00000006      -0.00008306      -0.00000721        0        0        0       58       26
Fe       1.55776399       3.93497964       9.07264852      -0.00000005      -0.00008081       0.00000179        0        0        0       58       26
Fe       0.14276410       3.15172014       7.22482626      -0.00000006      -0.00009364      -0.00000048        0        0        0       58       26
Fe       1.55776405       1.32597068       8.03574894      -0.00000006      -0.00009189       0.00000142        0        0        0       58       26
Fe      17.12276415       0.53663411       6.18245049      -0.00000006      -0.00010099       0.00000689       -1        0        0       58       26
Fe       0.14276400      14.73439175       8.81920973      -0.00000005      -0.00007631       0.00000184        0        0        0       58       26