16152
Lattice="16.98 0.0 0.0 0.0 73.58 0.0 0.0 0.0 147.15918645" Properties=species:S:1:pos:R:3:force:R:3:map_shift:I:3:n_neighb:I:1:Z:I:1 virial="-272.54784699 0.98534045 -0.00011156 0.98534045 -269.11491487 -0.10691462 -0.00011156 -0.10691462 -100.94878908" cutoff=5.3 adsorbate_info=T nneightol=1.2 energy=-64628.29796136 pbc="T T T"
Fe      15.33821093      50.23728298       0.93742805       0.00141675      -0.00131686      -0.00561407       -1       -1        0       58       26
Fe      -0.28099368       2.43589248     111.02499778      -0.00002726      -0.00104412      -0.00018144        0        0       -1       62       26
Fe       1.13400388       4.45079922     111.01820464       0.00134025      -0.00201447      -0.00123204        0        0       -1       51       26
Fe      -0.27114752       5.68026621     112.46961544      -0.00057397      -0.00290763       0.00067726        0        0       -1       55       26
Fe       1.13448342       7.37292081     111.02651742      -0.00266159       0.00124099      -0.00189159        0        0       -1       59       26
Fe      -0.26491680       7.93485650     113.41966567      -0.00291726      -0.00200327      -0.00278605        0        0       -1       58       26
Fe       1.14631945       9.81569675     112.88194213       0.00060938      -0.00021062       0.00157478        0        0       -1       53       26
Fe      -0.26072909      10.59086031     114.68055336       0.00150501       0.00061996       0.00208199        0        0       -1       57       26
Fe       1.15286801      12.47168872     113.91388684       0.00048745      -0.00143075      -0.00067862        0        0       -1       53       26
Fe      -0.25608531      13.20177625     115.73557916       0.00002855      -0.00267700       0.00071774        0        0       -1       58       26
Fe       1.15672194      15.01845931     114.88418252      -0.00083486      -0.00084132       0.00332430        0        0       -1       57       26
Fe      -0.25146332      15.76659223     116.76359302      -0.00243563       0.00138103       0.00120817        0        0       -1       58       26
Fe       1.16159062      17.60023893     115.98872602      -0.00184917       0.00246162      -0.00305945        0        0       -1       58       26
Fe      -0.24765651      18.36086114     117.86719327       0.00096421      -0.00091359      -0.00123379        0        0       -1       58       26
Fe       1.16591117      20.21339813     117.13386706      -0.00031219      -0.00203895      -0.00172967        0        0       -1       58       26
Fe      -0.24312915      20.97482073     118.99891395      -0.00187844       0.00091924      -0.00304810        0        0       -1       58       26
Fe       1.17018806      22.84189412     118.28165615      -0.00304109       0.00256344      -0.00210583        0        0       -1       58       26
Fe      -0.23971124      23.59981221     120.12237633      -0.00240141      -0.00013315       0.00076213        0        0       -1       58       26
Fe       1.17297106      25.45620024     119.36639687      -0.00123884      -0.00162380       0.00055060        0        0       -1       58       26
Fe      -0.23743208      26.21615728     121.21024042      -0.00182750       0.00006333      -0.00111473        0        0       -1       58       26
Fe       1.17532961      28.06520929     120.44029018      -0.00171226      -0.00051346       0.00056643        0        0       -1       58       26
Fe      -0.23548671      28.82919185     122.29221623      -0.00069412      -0.00102854       0.00077754        0        0       -1       58       26
Fe       1.17767582      30.68309451     121.53474745      -0.00115624      -0.00230834      -0.00160891        0        0       -1       58       26
Fe      -0.23324932      31.44426272     123.38698496      -0.00157888       0.00031184      -0.00248305        0        0       -1       58       26
Fe       1.18021429      33.30289431     122.63547112      -0.00239443       0.00101653      -0.00051168        0        0       -1       58       26
Fe      -0.23142077      34.06047115     124.48304297      -0.00170442       0.00008425       0.00015167        0        0       -1       58       26
Fe       1.18177166      35.91931534     123.72689183      -0.00059620      -0.00168521      -0.00030027        0        0       -1       58       26
Fe      -0.23040414      36.67343838     125.57185382      -0.00011481      -0.00226007      -0.00013190        0        0       -1       58       26
Fe       1.14625381       0.76759065     112.20150976      -0.00161468       0.00031462      -0.00045921        0        0       -1       55       26
Fe      -0.26091030       1.63764219     113.96040797      -0.00110231      -0.00012395      -0.00076050        0        0       -1       55       26
Fe       1.15204303       3.46752520     113.16639764      -0.00001552      -0.00031649      -0.00070456        0        0       -1       57       26
Fe      -0.25720659       4.24986097     115.02454330      -0.00168340       0.00042337       0.00051660        0        0       -1       58       26
Fe       1.15409119       6.11558581     114.38342585      -0.00382396       0.00103791       0.00191788        0        0       -1       58       26
Fe      -0.25401975       6.88283379     116.17671859      -0.00391454       0.00241718       0.00195199        0        0       -1       56       26
Fe       1.15805423       8.70172905     115.35589077      -0.00163382      -0.00036061      -0.00085772        0        0       -1       56       26
Fe      -0.25133531       9.47014647     117.23377602       0.00031283       0.00172530      -0.00075433        0        0       -1       58       26
Fe       1.16076699      11.34006797     116.50769067       0.00209353      -0.00038215       0.00147354        0        0       -1       58       26
Fe      -0.24776438      12.08654004     118.34936216      -0.00138709      -0.00068915       0.00314156        0        0       -1       58       26
Fe       1.16543115      13.93899978     117.57619886      -0.00239632      -0.00099431      -0.00085759        0        0       -1       58       26
Fe      -0.24402776      14.68451045     119.42552661      -0.00196582      -0.00038120      -0.00286269        0        0       -1       58       26
Fe       1.16915626      16.52054801     118.63424239      -0.00087602       0.00134791       0.00124652        0        0       -1       58       26
Fe      -0.24056164      17.27730399     120.49900639       0.00036985      -0.00136848       0.00285097        0        0       -1       58       26
Fe       1.17307645      19.12155664     119.73720800       0.00028054      -0.00019329      -0.00103794        0        0       -1       58       26
Fe      -0.23615410      19.88277130     121.60091568      -0.00377242       0.00392946      -0.00285646        0        0       -1       58       26
Fe       1.17730783      21.73738883     120.85648831      -0.00359793       0.00147078      -0.00029682        0        0       -1       58       26
Fe      -0.23354880      22.50079503     122.71019620      -0.00192478       0.00140197       0.00081453        0        0       -1       58       26
Fe       1.17955532      24.35995716     121.96674295      -0.00120249       0.00201938      -0.00046767        0        0       -1       58       26
Fe      -0.23158017      25.12109520     123.81329652      -0.00147486      -0.00117548       0.00120779        0        0       -1       58       26
Fe       1.18159360      26.97703010     123.05637056      -0.00183680      -0.00164625       0.00064760        0        0       -1       58       26
Fe      -0.22996624      27.73587617     124.90501628      -0.00036153      -0.00053330       0.00020116        0        0       -1       58       26
Fe       1.18313492      29.58940501     124.14402248       0.00075093       0.00015167      -0.00026593        0        0       -1       58       26
Fe      -0.22837020      30.34803299     125.99551856      -0.00080504       0.00112784      -0.00008937        0        0       -1       58       26
Fe       1.18525203      32.20320895     125.23807819      -0.00236394       0.00005927      -0.00117599        0        0       -1       58       26
Fe      16.75292484      32.96064016     127.08883180      -0.00247665       0.00212811      -0.00132358       -1        0       -1       58       26
Fe       1.18626010      34.81688883     126.33126159      -0.00120048      -0.00053169       0.00009524        0        0       -1       58       26
Fe      -0.22662916      35.57345302     128.17984696      -0.00113364      -0.00039124       0.00010488        0        0       -1       58       26
Fe      -0.25139358       0.56558247     116.62607556      -0.00165284      -0.00001774       0.00094270        0        0       -1       58       26
Fe       1.16056374       2.40527749     115.81942049      -0.00059083      -0.00127869      -0.00015138        0        0       -1       59       26
Fe      -0.24852535       3.16425182     117.67939343      -0.00082944      -0.00194486       0.00042686        0        0       -1       58       26
Fe       1.16381404       5.00828236     116.90658732      -0.00179993       0.00027564       0.00007435        0        0       -1       58       26
Fe      -0.24590409       5.76859552     118.76914436      -0.00019916       0.00035138      -0.00026951        0        0       -1       58       26
Fe       1.16647991       7.62662523     118.01814319      -0.00098777       0.00276628       0.00055663        0        0       -1       58       26
Fe      -0.24321681       8.37822247     119.86766135      -0.00099829       0.00072718      -0.00032153        0        0       -1       58       26
Fe       1.16941487      10.22698510     119.09703381      -0.00070889      -0.00126570       0.00085809        0        0       -1       58       26
Fe      -0.24043158      10.98158453     120.95469305      -0.00200393      -0.00323209      -0.00070374        0        0       -1       58       26
Fe       1.17267276      12.83554719     120.19738254      -0.00219284      -0.00096367      -0.00055579        0        0       -1       58       26
Fe      -0.23808324      13.58689862     122.04800890       0.00163896       0.00263811      -0.00084682        0        0       -1       58       26
Fe       1.17572559      15.43570679     121.27779023       0.00043640      -0.00169765      -0.00073216        0        0       -1       58       26
Fe      -0.23427242      16.19024600     123.13120438      -0.00062693       0.00245024      -0.00002653        0        0       -1       58       26
Fe       1.18000895      18.03497831     122.36022684      -0.00307127       0.00472311      -0.00058303        0        0       -1       58       26
Fe      -0.23050172      18.79654281     124.21726294      -0.00341817      -0.00083632       0.00248997        0        0       -1       58       26
Fe       1.18312060      20.64660343     123.45909285      -0.00263218      -0.00142473      -0.00048233        0        0       -1       58       26
Fe      -0.22861557      21.40843026     125.31514662      -0.00075205       0.00059559      -0.00254987        0        0       -1       58       26
Fe       1.18492309      23.26317779     124.56257219      -0.00075256       0.00054998       0.00056049        0        0       -1       58       26
Fe      -0.22688886      24.02385320     126.41454507      -0.00112440      -0.00026255      -0.00036736        0        0       -1       58       26
Fe       1.18692641      25.88048946     125.66229119      -0.00246613      -0.00098990      -0.00118692        0        0       -1       58       26
Fe      -0.22505168      26.63899295     127.51246534      -0.00343627      -0.00162125      -0.00260337        0        0       -1       58       26
Fe       1.18832757      28.49394537     126.75497796      -0.00147606       0.00015825       0.00003595        0        0       -1       58       26
Fe      -0.22399507      29.25157640     128.60575337      -0.00416641       0.00036988      -0.00299348        0        0       -1       58       26
Fe       1.18943249      31.10576029     127.84701404      -0.00273635       0.00196845      -0.00240068        0        0       -1       58       26
Fe      -0.22413768      31.86422976     129.69778319      -0.00154454       0.00035964      -0.00246975        0        0       -1       58       26
Fe       1.18956014      33.71868731     128.93911473      -0.00085064       0.00055589      -0.00100583        0        0       -1       58       26
Fe      -0.22431953      34.47723433     130.78928788       0.00052709      -0.00126746      -0.00337041        0        0       -1       58       26
Fe       1.19013187      36.33097296     130.02863630      -0.00146708      -0.00073794      -0.00021916        0        0       -1       58       26
Fe       1.16927109       1.32388982     118.47484090      -0.00172664      -0.00216387       0.00197524        0        0       -1       58       26
Fe      -0.24076391       2.07839017     120.32514968      -0.00192387      -0.00337689       0.00152420        0        0       -1       58       26
Fe       1.17181542       3.92141599     119.53965663      -0.00148101      -0.00216458      -0.00071649        0        0       -1       58       26
Fe      -0.23832982       4.67673822     121.39754124      -0.00294598       0.00082365      -0.00181513        0        0       -1       58       26
Fe       1.17415809       6.52475459     120.62802784      -0.00068780       0.00162486      -0.00167727        0        0       -1       58       26
Fe      -0.23626877       7.28056003     122.48436066      -0.00196375      -0.00041742      -0.00188060        0        0       -1       58       26
Fe       1.17664019       9.13155587     121.72049096      -0.00196747      -0.00048113       0.00072202        0        0       -1       58       26
Fe      -0.23449523       9.88551734     123.57472552       0.00016328       0.00264983      -0.00026158        0        0       -1       58       26
Fe       1.17855816      11.73509954     122.81000436       0.00109743       0.00386953      -0.00181259        0        0       -1       58       26
Fe      -0.23221921      12.49210459     124.66296678       0.00139173       0.00027844       0.00242982        0        0       -1       58       26
Fe       1.18152484      14.34233112     123.89915244       0.00122571       0.00015167       0.00237712        0        0       -1       58       26
Fe      -0.22875196      15.09961473     125.75117393      -0.00122777       0.00301314       0.00275195        0        0       -1       58       26
Fe       1.18532414      16.94867223     124.98427957      -0.00160219       0.00072035       0.00186254        0        0       -1       58       26
Fe      -0.22594989      17.70765517     126.83756284      -0.00178974       0.00007713       0.00139249        0        0       -1       58       26
Fe       1.18784764      19.55676263     126.07304518      -0.00170940       0.00252646       0.00147976        0        0       -1       58       26
Fe      -0.22436656      20.31709529     127.92769175      -0.00144786       0.00035071       0.00117445        0        0       -1       58       26
Fe       1.18926959      22.16935639     127.16932015      -0.00054256      -0.00066633      -0.00232121        0        0       -1       58       26
Fe      -0.22329277      22.92843756     129.02261455      -0.00158805       0.00153937      -0.00195198        0        0       -1       58       26
Fe       1.19081892      24.78290464     128.26634733      -0.00205409       0.00033306      -0.00011869        0        0       -1       58       26
Fe      -0.22244751      25.54129611     130.11790747      -0.00296391       0.00310635       0.00027503        0        0       -1       58       26
Fe       1.19207747      27.39683088     129.36306892      -0.00455610      -0.00038839      -0.00311456        0        0       -1       58       26
Fe      -0.22237587      28.15525910     131.21347270      -0.00275561       0.00251178      -0.00179637        0        0       -1       58       26
Fe       1.19218615      30.00975345     130.45612054      -0.00392173       0.00168738      -0.00287677        0        0       -1       58       26
Fe      -0.22262566      30.76866001     132.30601441      -0.00253905       0.00139212      -0.00188358        0        0       -1       58       26
Fe       1.19153653      32.62298462     131.54807134      -0.00012302       0.00029238      -0.00373696        0        0       -1       58       26
Fe      -0.22281436      33.38205832     133.39777080      -0.00157370      -0.00136519      -0.00126715        0        0       -1       58       26
Fe       1.19175443      35.23596093     132.63910283      -0.00004068      -0.00218781      -0.00411514        0        0       -1       58       26
Fe      -0.22244433      35.99426057     134.48860089      -0.00060868      -0.00136183      -0.00267930        0        0       -1       58       26
Fe       1.17643868       0.23233677     121.11488695      -0.00209704      -0.00198804       0.00210241        0        0       -1       58       26
Fe      -0.23477066       0.98365439     122.95735246      -0.00163655      -0.00078993       0.00235790        0        0       -1       58       26
Fe       1.17856325       2.83130689     122.17634472      -0.00222502      -0.00081012       0.00140722        0        0       -1       58       26
Fe      -0.23291496       3.58491963     124.02764185      -0.00137805      -0.00023743       0.00019130        0        0       -1       58       26
Fe       1.18068481       5.43206262     123.25332511      -0.00253055      -0.00013626      -0.00284446        0        0       -1       58       26
Fe      -0.23095601       6.18751224     125.10743909      -0.00141322      -0.00050524       0.00103681        0        0       -1       58       26
Fe       1.18249552       8.03607102     124.33936013      -0.00133543      -0.00059168       0.00033335        0        0       -1       58       26
Fe      -0.22893873       8.79267378     126.19322871      -0.00150536       0.00120387       0.00024193        0        0       -1       58       26
Fe       1.18439994      10.64255709     125.42831186       0.00021170      -0.00088897      -0.00136901        0        0       -1       58       26
Fe      -0.22664462      11.40033893     127.28123823      -0.00077032      -0.00029785       0.00051100        0        0       -1       58       26
Fe       1.18731117      13.24976912     126.51581202      -0.00132771       0.00203672       0.00319695        0        0       -1       58       26
Fe      -0.22378670      14.00861903     128.36868636      -0.00247316      -0.00036721      -0.00029296        0        0       -1       58       26
Fe       1.19023167      15.85857703     127.60373171      -0.00249457      -0.00025474       0.00244068        0        0       -1       58       26
Fe      -0.22178190      16.61741357     129.45722568      -0.00305096      -0.00075565      -0.00357979        0        0       -1       58       26
Fe       1.19194974      18.46661872     128.69075304      -0.00213336       0.00089920       0.00084646        0        0       -1       58       26
Fe      -0.22110457      19.22522042     130.54366297      -0.00190584       0.00387010       0.00358427        0        0       -1       58       26
Fe       1.19278052      21.07618160     129.78208272      -0.00192866       0.00230236      -0.00148400        0        0       -1       58       26
Fe      -0.22102273      21.83600462     131.63564500      -0.00222997       0.00040420      -0.00310826        0        0       -1       58       26
Fe       1.19322729      23.68740225     130.87492527      -0.00300680       0.00373412      -0.00020355        0        0       -1       58       26
Fe      -0.22176132      24.44767056     132.72628421      -0.00153979       0.00047917       0.00510169        0        0       -1       58       26
Fe       1.19267685      26.30086408     131.96904825      -0.00062461       0.00225104       0.00234478        0        0       -1       58       26
Fe      -0.22299117      27.06100952     133.82033832       0.00147143      -0.00246734       0.00334060        0        0       -1       58       26
Fe       1.19224544      28.91479954     133.06380142      -0.00042929       0.00003881      -0.00071623        0        0       -1       58       26
Fe      -0.22322308      29.67388909     134.91432776      -0.00035739      -0.00253658      -0.00042663        0        0       -1       58       26
Fe       1.19232020      31.52780909     134.15562429      -0.00261168      -0.00096099       0.00165960        0        0       -1       58       26
Fe      -0.22331292      32.28606459     136.00568905      -0.00080905      -0.00061097       0.00209739        0        0       -1       58       26
Fe       1.19238110      34.14031066     135.24766168      -0.00211419      -0.00034918      -0.00034404        0        0       -1       58       26
Fe      -0.22292098      34.89858165     137.09766303      -0.00126499      -0.00003261      -0.00063997        0        0       -1       58       26
Fe       1.19315006      36.75217544     136.33803796      -0.00182464       0.00112871      -0.00101998        0        0       -1       58       26
Fe       1.18333775       1.73628011     124.80307847      -0.00107557      -0.00044609       0.00295359        0        0       -1       58       26
Fe      -0.22902328       2.49001033     126.65103452      -0.00027725       0.00089059       0.00135629        0        0       -1       58       26
Fe       1.18510441       4.33915182     125.87883903      -0.00087842       0.00210922       0.00160871        0        0       -1       58       26
Fe      -0.22711097       5.09502864     127.72999599      -0.00117652       0.00246136       0.00063543        0        0       -1       58       26
Fe       1.18722342       6.94378848     126.96084469      -0.00186638       0.00121366      -0.00056150        0        0       -1       58       26
Fe      -0.22499608       7.70158219     128.81341884      -0.00097820       0.00086895      -0.00093688        0        0       -1       58       26
Fe       1.18940530       9.55046020     128.04616426      -0.00134708       0.00256431       0.00281101        0        0       -1       58       26
Fe      -0.22244813      10.30902472     129.89923095      -0.00143544       0.00179263      -0.00132260        0        0       -1       58       26
Fe       1.19193637      12.15864497     129.13399820      -0.00126993       0.00188000      -0.00073123        0        0       -1       58       26
Fe      -0.21997092      12.91755761     130.98661485      -0.00253728       0.00114231      -0.00169930        0        0       -1       58       26
Fe       1.19419279      14.76721681     130.22132805      -0.00251931       0.00080181      -0.00112065        0        0       -1       58       26
Fe      -0.21887781      15.52607947     132.07355679      -0.00125910       0.00129692       0.00274715        0        0       -1       58       26
Fe       1.19504618      17.37643329     131.31042255      -0.00183678      -0.00189682      -0.00643782        0        0       -1       58       26
Fe      16.76108737      18.13563842     133.16255704      -0.00116007      -0.00236151      -0.00367705       -1        0       -1       58       26
Fe       1.19490442      19.98502033     132.39633581      -0.00136261       0.00112589       0.00667210        0        0       -1       58       26
Fe      -0.21999020      20.74480499     134.24944476      -0.00126217      -0.00044960       0.00614865        0        0       -1       58       26
Fe       1.19394265      22.59638253     133.48817959      -0.00110462      -0.00336340      -0.00127364        0        0       -1       58       26
Fe      -0.22197956      23.35520515     135.34038372       0.00065829      -0.00055236       0.00078916        0        0       -1       58       26
Fe       1.19237459      25.20742262     134.57789870       0.00059514      -0.00153159       0.00802913        0        0       -1       58       26
Fe      -0.22348404      25.96573648     136.43045282       0.00034260       0.00154834       0.00632171        0        0       -1       58       26
Fe       1.19144847      27.81970120     135.67222095       0.00028543      -0.00189690       0.00112689        0        0       -1       58       26
Fe      -0.22437776      28.57787202     137.52397941      -0.00093228      -0.00073425      -0.00093049        0        0       -1       58       26
Fe       1.19091738      30.43206650     136.76481116       0.00044128      -0.00253046      -0.00032946        0        0       -1       58       26
Fe      -0.22520326      31.19027591     138.61484468       0.00055422      -0.00180909       0.00101506        0        0       -1       58       26
Fe       1.19074495      33.04451638     137.85586104       0.00087396      -0.00170561       0.00130558        0        0       -1       58       26
Fe      -0.22515123      33.80302717     139.70593084       0.00006579      -0.00041020       0.00034407        0        0       -1       58       26
Fe       1.19143832      35.65747132     138.94750542      -0.00100557      -0.00143876      -0.00104349        0        0       -1       58       26
Fe      -0.22485382      36.41640054     140.79717045       0.00067984      -0.00125422      -0.00299980        0        0       -1       58       26
Fe       1.18698883       0.63807516     127.41877134       0.00025708      -0.00064521      -0.00178154        0        0       -1       58       26
Fe      -0.22581740       1.39443352     129.26626352      -0.00028330      -0.00139949      -0.00018206        0        0       -1       58       26
Fe       1.18838516       3.24593525     128.49986362       0.00007823      -0.00073193       0.00021611        0        0       -1       58       26
Fe      -0.22446858       4.00299175     130.34927342       0.00018999      -0.00109001      -0.00041417        0        0       -1       58       26
Fe       1.19026492       5.85248269     129.58097404      -0.00025523       0.00054402       0.00064245        0        0       -1       58       26
Fe      -0.22249423       6.61058528     131.43182592       0.00067095      -0.00043639       0.00134873        0        0       -1       58       26
Fe       1.19265382       8.46004767     130.66555838      -0.00029381      -0.00064644      -0.00228637        0        0       -1       58       26
Fe      -0.21957875       9.21861299     132.51714898      -0.00126389      -0.00117725      -0.00166936        0        0       -1       58       26
Fe       1.19553036      11.06814909     131.75178881      -0.00250173      -0.00098551      -0.00328693        0        0       -1       58       26
Fe      -0.21706093      11.82669060     133.60372732      -0.00327386      -0.00040367      -0.00136885        0        0       -1       58       26
Fe       1.19725465      13.67662429     132.83909448      -0.00247076      -0.00092705      -0.00284469        0        0       -1       58       26
Fe      -0.21622990      14.43505454     134.69121356      -0.00361538       0.00083849      -0.00159182        0        0       -1       58       26
Fe       1.19741175      16.28498900     133.92617117      -0.00155314       0.00184075       0.00322972        0        0       -1       58       26
Fe      -0.21705071      17.04371094     135.77949382      -0.00387431       0.00316496      -0.00154283        0        0       -1       58       26
Fe       1.19645074      18.89401924     135.01413967      -0.00257882       0.00227952       0.00284082        0        0       -1       58       26
Fe      -0.21947084      19.65234765     136.86632459      -0.00176209       0.00528853       0.00644793        0        0       -1       58       26
Fe       1.19414129      21.50351945     136.10337544      -0.00042259       0.00162830      -0.00050953        0        0       -1       58       26
Fe      -0.22218607      22.26226196     137.95711434      -0.00034309       0.00123981      -0.00586716        0        0       -1       58       26
Fe       1.19194269      24.11327633     137.19255287       0.00056843       0.00308230       0.00291361        0        0       -1       58       26
Fe      -0.22430991      24.87182864     139.04492666      -0.00078773       0.00326684       0.00278805        0        0       -1       58       26
Fe       1.19046440      26.72429363     138.28352595      -0.00064495       0.00148536       0.00101807        0        0       -1       58       26
Fe      16.75371944      27.48325503     140.13640375       0.00073052       0.00129182      -0.00504258       -1        0       -1       58       26
Fe       1.18919945      29.33625247     139.37516292      -0.00035205       0.00041107      -0.00189180        0        0       -1       58       26
Fe      -0.22752320      30.09516440     141.22566228       0.00182630       0.00279714      -0.00066034        0        0       -1       58       26
Fe       1.18858934      31.94853230     140.46468382       0.00014749       0.00219601       0.00240688        0        0       -1       58       26
Fe      -0.22770668      32.70784075     142.31454086       0.00157580       0.00405239       0.00239708        0        0       -1       58       26
Fe       1.18864821      34.56185016     141.55577524       0.00072719       0.00162919      -0.00156645        0        0       -1       58       26
Fe      -0.22735426      35.32151146     143.40513311       0.00203058       0.00140879      -0.00077871        0        0       -1       58       26