6960
Lattice="16.98 0.0 0.0 0.0 48.3590612 0.0 0.0 0.0 96.70081319" Properties=species:S:1:pos:R:3:force:R:3:map_shift:I:3:n_neighb:I:1:Z:I:1 nneightol=1.2 virial="-185.39105469 -0.01117912 4.51e-06 -0.01117912 -173.77937763 0.00262639 4.51e-06 0.00262639 -103.15219269" energy=-27809.94227591 cutoff=5.3 pbc="T T T"
Fe      14.29764264      37.31503393       4.87975841      -0.00015800       0.00014758       0.00035902       -1       -1        0       58       26
Fe       0.14171107       2.26933261      72.93879350       0.00000045       0.00000202      -0.00001391        0        0       -1       62       26
Fe       1.55670458       4.28299985      72.93941363       0.00000221       0.00005959      -0.00054328        0        0       -1       51       26
Fe       0.14268982       5.53544625      74.38623821      -0.00005936       0.00029318       0.00018639        0        0       -1       56       26
Fe      15.71254670      35.48816014       5.69867729      -0.00015630       0.00008565       0.00066649       -1       -1        0       58       26
Fe       0.14334259       7.80498416      75.32242593      -0.00007119      -0.00061032       0.00039986        0        0       -1       58       26
Fe       1.55808244       9.67236114      74.79202221      -0.00005478       0.00141087       0.00114516        0        0       -1       53       26
Fe       0.14396019      10.50363970      76.55946833      -0.00008047      -0.00050444      -0.00241031        0        0       -1       57       26
Fe       1.55882415      12.36163801      75.77711172      -0.00007661      -0.00227810      -0.00355883        0        0       -1       55       26
Fe       0.14439438      13.18083552      77.54502091      -0.00008649       0.00122325       0.00316825        0        0       -1       58       26
Fe       1.55910001      14.98044873      76.65381716      -0.00006549       0.00066398       0.00139694        0        0       -1       57       26
Fe       0.14471501      15.82105547      78.45853587      -0.00009432      -0.00083784      -0.00134393        0        0       -1       58       26
Fe       1.55943789      17.63473519      77.59723114      -0.00007242      -0.00045295      -0.00089629        0        0       -1       58       26
Fe       0.14502016      18.46811234      79.40070418      -0.00011049       0.00031802       0.00085139        0        0       -1       58       26
Fe       1.55973031      20.27121421      78.51833664      -0.00009736      -0.00000964       0.00039604        0        0       -1       58       26
Fe       0.14530598      21.10148107      80.34261235      -0.00011970      -0.00036875      -0.00045222        0        0       -1       58       26
Fe       1.56002425      22.90984524      79.47746208      -0.00011870      -0.00009652      -0.00038278        0        0       -1       58       26
Fe       0.14558975      23.73174480      81.31039191      -0.00012977       0.00011068       0.00010480        0        0       -1       58       26
Fe       1.55791479       0.62381580      74.14000844      -0.00006021      -0.00001255      -0.00008305        0        0       -1       55       26
Fe       0.14376490       1.52523315      75.90490948      -0.00010960       0.00017932      -0.00001895        0        0       -1       55       26
Fe       1.55855245       3.34456214      75.10336728      -0.00011254      -0.00021022       0.00025571        0        0       -1       57       26
Fe       0.14413254       4.16701691      76.95673826      -0.00013765      -0.00036738      -0.00001622        0        0       -1       58       26
Fe       1.55872558       6.01492540      76.29766092      -0.00010734       0.00035891      -0.00016634        0        0       -1       58       26
Fe       0.14448669       6.83759285      78.07664011      -0.00013918       0.00018419      -0.00031270        0        0       -1       56       26
Fe       1.55927274       8.63478476      77.24142678      -0.00011430      -0.00067792      -0.00026013        0        0       -1       56       26
Fe       0.14490466       9.48134654      79.08682492      -0.00013405       0.00005412       0.00093008        0        0       -1       58       26
Fe       1.55963719      11.33518755      78.34147794      -0.00010671       0.00112602       0.00217050        0        0       -1       58       26
Fe       0.14524151      12.16694635      80.13597186      -0.00013265      -0.00092357      -0.00192417        0        0       -1       58       26
Fe       1.55998822      14.00767744      79.32614279      -0.00011373      -0.00121889      -0.00240593        0        0       -1       58       26
Fe       0.14554423      14.83327240      81.11914889      -0.00013335       0.00080546       0.00199628        0        0       -1       58       26
Fe       1.56029170      16.65312036      80.26379275      -0.00012490       0.00049609       0.00139944        0        0       -1       58       26
Fe       0.14582893      17.47868980      82.07255751      -0.00014835      -0.00068175      -0.00113403        0        0       -1       58       26
Fe       1.56057447      19.29386167      81.21300289      -0.00012897      -0.00041025      -0.00083740        0        0       -1       58       26
Fe       0.14607725      20.11563891      83.03069654      -0.00015017       0.00034016       0.00066948        0        0       -1       58       26
Fe       1.56083977      21.92472716      82.16929178      -0.00013286       0.00005506       0.00042782        0        0       -1       58       26
Fe       0.14632026      22.74801928      83.99654963      -0.00013345      -0.00040387      -0.00047292        0        0       -1       58       26
Fe       0.14473234       0.53194816      78.60621809      -0.00012984      -0.00027742      -0.00011852        0        0       -1       58       26
Fe       1.55944618       2.34282862      77.76744016      -0.00013766       0.00013620      -0.00023364        0        0       -1       59       26
Fe       0.14507710       3.16564605      79.62304320      -0.00014760       0.00017096       0.00001080        0        0       -1       58       26
Fe       1.55979140       4.98590073      78.82679477      -0.00015035      -0.00027550       0.00012290        0        0       -1       58       26
Fe       0.14539803       5.81977305      80.67001743      -0.00014719      -0.00020277       0.00007407        0        0       -1       58       26
Fe       1.56013787       7.65694410      79.89350112      -0.00014321       0.00028697       0.00022341        0        0       -1       58       26
Fe       0.14571041       8.48905069      81.71322933      -0.00014282      -0.00022078      -0.00032749        0        0       -1       58       26
Fe       1.56048536      10.32071286      80.91281692      -0.00014173      -0.00052437      -0.00082959        0        0       -1       58       26
Fe       0.14600672      11.15604013      82.73223671      -0.00014761       0.00027374       0.00093480        0        0       -1       58       26
Fe       1.56078517      12.99684762      81.93727273      -0.00014636       0.00061229       0.00173345        0        0       -1       58       26
Fe       0.14628426      13.82432261      83.74422049      -0.00016177      -0.00071090      -0.00127963        0        0       -1       58       26
Fe       1.56106700      15.65702645      82.92115463      -0.00015535      -0.00079208      -0.00147919        0        0       -1       58       26
Fe       0.14652663      16.47928467      84.72948640      -0.00017998       0.00053670       0.00125478        0        0       -1       58       26
Fe       1.56131226      18.30068228      83.88533676      -0.00016007       0.00034579       0.00110267        0        0       -1       58       26
Fe       0.14673487      19.12239640      85.70119936      -0.00016684      -0.00062629      -0.00087551        0        0       -1       58       26
Fe       1.56153418      20.93751262      84.85112572      -0.00015047      -0.00025217      -0.00073627        0        0       -1       58       26
Fe       0.14692889      21.76097432      86.67256103      -0.00014973       0.00036663       0.00050870        0        0       -1       58       26
Fe       1.56174309      23.57321916      85.82317303      -0.00013563      -0.00002265       0.00049742        0        0       -1       58       26
Fe       1.56034088       1.35603254      80.45502894      -0.00013800      -0.00011505       0.00015131        0        0       -1       58       26
Fe       0.14586500       2.18418816      82.29813362      -0.00013157      -0.00027607      -0.00023656        0        0       -1       58       26
Fe       1.56064034       3.99665572      81.47112794      -0.00013958      -0.00003942      -0.00022384        0        0       -1       58       26
Fe       0.14613746       4.83123535      83.31087433      -0.00012659       0.00002974       0.00012333        0        0       -1       58       26
Fe       1.56093563       6.65549356      82.50489229      -0.00013351      -0.00014454       0.00002701        0        0       -1       58       26
Fe       0.14640744       7.49095550      84.33508871      -0.00013059      -0.00013985       0.00003988        0        0       -1       58       26
Fe       1.56121267       9.32258480      83.53444314      -0.00014078       0.00006659       0.00039458        0        0       -1       58       26
Fe       0.14665954      10.15504488      85.35635114      -0.00015334      -0.00024309      -0.00027636        0        0       -1       58       26
Fe       1.56147965      11.98789833      84.55014639      -0.00016522      -0.00045552      -0.00070672        0        0       -1       58       26
Fe       0.14689412      12.81715266      86.36837270      -0.00017832       0.00021253       0.00066417        0        0       -1       58       26
Fe       1.56172319      14.64990900      85.55551331      -0.00018018       0.00037579       0.00113540        0        0       -1       58       26
Fe       0.14709052      15.47490378      87.37013552      -0.00018689      -0.00063485      -0.00083334        0        0       -1       58       26
Fe       1.56192460      17.30167243      86.54235894      -0.00017972      -0.00043415      -0.00111786        0        0       -1       58       26
Fe       0.14725241      18.12495673      88.35804077      -0.00017538       0.00051800       0.00078581        0        0       -1       58       26
Fe       1.56209734      19.94523266      87.51887142      -0.00016912       0.00007699       0.00087408        0        0       -1       58       26
Fe       0.14740257      20.76932344      89.33795037      -0.00016579      -0.00070112      -0.00063675        0        0       -1       58       26
Fe       1.56226510      22.58581078      88.49451739      -0.00015779      -0.00018394      -0.00075453        0        0       -1       58       26
Fe       0.14754245      23.41153283      90.31665457      -0.00017185       0.00041287       0.00052264        0        0       -1       58       26
Fe       1.56109514       0.37677381      83.14409212      -0.00012820      -0.00015110      -0.00042836        0        0       -1       58       26
Fe       0.14654660       1.20435313      84.97601206      -0.00012100       0.00013919       0.00020478        0        0       -1       58       26
Fe       1.56134565       3.01545887      84.13597173      -0.00011908      -0.00008590       0.00023585        0        0       -1       58       26
Fe       0.14676682       3.84760476      85.96974070      -0.00011610      -0.00036622      -0.00033112        0        0       -1       58       26
Fe       1.56159126       5.66594865      85.14539844      -0.00011958      -0.00014062      -0.00023334        0        0       -1       58       26
Fe       0.14698634       6.49944771      86.97655494      -0.00013263       0.00004066       0.00020036        0        0       -1       58       26
Fe       1.56182887       8.32476441      86.16294903      -0.00014121      -0.00014417       0.00006525        0        0       -1       58       26
Fe       0.14719317       9.15686528      87.98951278      -0.00016253      -0.00013454      -0.00002532        0        0       -1       58       26
Fe       1.56204865      10.98589806      87.17867743      -0.00017112      -0.00000206       0.00031999        0        0       -1       58       26
Fe       0.14736995      11.81552526      89.00136242      -0.00018771      -0.00029728      -0.00014858        0        0       -1       58       26
Fe       1.56223923      13.64504852      88.18754041      -0.00019003      -0.00021159      -0.00055337        0        0       -1       58       26
Fe       0.14751296      14.47239832      90.00760266      -0.00018852       0.00029623       0.00037987        0        0       -1       58       26
Fe       1.56239084      16.30002954      89.18699682      -0.00018749      -0.00000350       0.00083952        0        0       -1       58       26
Fe       0.14762739      17.12572026      91.00561088      -0.00017317      -0.00069671      -0.00050479        0        0       -1       58       26
Fe       1.56252160      18.94931824      90.17575491      -0.00017108      -0.00020341      -0.00089871        0        0       -1       58       26
Fe       0.14772949      19.77452190      91.99489687      -0.00017290       0.00048844       0.00053541        0        0       -1       58       26
Fe       1.56264573      21.59434749      91.15794807      -0.00017680      -0.00010941       0.00080414        0        0       -1       58       26
Fe       0.14782259      22.41995648      92.97878860      -0.00018974      -0.00073349      -0.00063325        0        0       -1       58       26
Fe       0.14710971       0.22026033      87.64905818      -0.00013847      -0.00054058      -0.00050437        0        0       -1       58       26
Fe       1.56194328       2.03337160      86.80601001      -0.00012366      -0.00017370      -0.00055741        0        0       -1       58       26
Fe       0.14728588       2.86269674      88.63431675      -0.00014612       0.00022010       0.00034438        0        0       -1       58       26
Fe       1.56213909       4.67931275      87.80064606      -0.00013435      -0.00009515       0.00037017        0        0       -1       58       26
Fe       0.14745146       5.51014658      89.62952734      -0.00016445      -0.00043384      -0.00045872        0        0       -1       58       26
Fe       1.56232574       7.33151538      88.80552521      -0.00016052      -0.00021961      -0.00030740        0        0       -1       58       26
Fe       0.14759505       8.16230861      90.63294286      -0.00018732      -0.00000307       0.00035717        0        0       -1       58       26
Fe       1.56248896       9.98756690      89.81526800      -0.00018628       0.00000815       0.00007792        0        0       -1       58       26
Fe       0.14770690      10.81737690      91.64046023      -0.00019552      -0.00001263      -0.00016205        0        0       -1       58       26
Fe       1.56261661      12.64443442      90.82428093      -0.00019214      -0.00021732       0.00029170        0        0       -1       58       26
Fe       0.14778669      13.47302528      92.64742302      -0.00018125      -0.00046134      -0.00001629        0        0       -1       58       26
Fe       1.56271488      15.29973997      91.82852789      -0.00017872      -0.00003843      -0.00052404        0        0       -1       58       26
Fe       0.14784774      16.12722221      93.65019511      -0.00016532       0.00035164       0.00026956        0        0       -1       58       26
Fe       1.56279692      17.95193087      92.82554544      -0.00016784      -0.00019853       0.00071638        0        0       -1       58       26
Fe      17.12790085      18.77857158      94.64668341      -0.00016952      -0.00067297      -0.00048088       -1        0       -1       58       26
Fe       1.56287023      20.60033934      93.81530993      -0.00017988      -0.00015142      -0.00087042        0        0       -1       58       26
Fe       0.14794183      21.42654014      95.63664123      -0.00018757       0.00042746       0.00060590        0        0       -1       58       26
Fe       1.56292836      23.24587587      94.80017917      -0.00019936       0.00003570       0.00082705        0        0       -1       58       26
Fe       1.56242047       1.04749744      89.47417864      -0.00015995      -0.00007646       0.00068124        0        0       -1       58       26
Fe       0.14766782       1.87487146      91.29879426      -0.00018542      -0.00062382      -0.00059166        0        0       -1       58       26
Fe       1.56256605       3.69174794      90.46134768      -0.00017142      -0.00027266      -0.00068578        0        0       -1       58       26
Fe       0.14777325       4.52031591      92.28720594      -0.00019682       0.00024485       0.00057768        0        0       -1       58       26
Fe       1.56269125       6.34006568      91.45681454      -0.00019062       0.00010012       0.00048906        0        0       -1       58       26
Fe       0.14784873       7.16926824      93.28291172      -0.00019880      -0.00033661      -0.00065901        0        0       -1       58       26
Fe       1.56278372       8.99219275      92.45925228      -0.00019675      -0.00042848      -0.00034153        0        0       -1       58       26
Fe       0.14789045       9.82144324      94.28463666      -0.00018622      -0.00012603       0.00054205        0        0       -1       58       26
Fe       1.56284503      11.64664622      93.46520930      -0.00018422       0.00016419       0.00007284        0        0       -1       58       26
Fe       0.14790930      12.47562144      95.28967486      -0.00016363       0.00006884      -0.00023724        0        0       -1       58       26
Fe       1.56288491      14.30152349      94.47078580      -0.00016456      -0.00033893       0.00030179        0        0       -1       58       26
Fe       0.14791840      15.13000777      96.29450181      -0.00015593      -0.00041034      -0.00005903        0        0       -1       58       26
Fe       1.56291613      16.95490223      95.47267872      -0.00016127      -0.00001282      -0.00054745        0        0       -1       58       26
Fe       1.56293882      19.60554226      96.46878085      -0.00017705      -0.00002837       0.00068354        0        0       -1       58       26
Fe       1.56275510       0.05814776      92.13901626      -0.00019356      -0.00019819      -0.00083959        0        0       -1       58       26
Fe       0.14789551       0.88444091      93.96137036      -0.00020727       0.00039886       0.00065781        0        0       -1       58       26
Fe       1.56284258       2.70211819      93.12280496      -0.00020415       0.00009063       0.00076626        0        0       -1       58       26
Fe       0.14793737       3.52915274      94.94632432      -0.00020999      -0.00047670      -0.00071032        0        0       -1       58       26
Fe       1.56289968       5.34842950      94.11215432      -0.00020527      -0.00046140      -0.00070414        0        0       -1       58       26
Fe       0.14794422       6.17607779      95.93612876      -0.00019356       0.00011431       0.00077661        0        0       -1       58       26
Fe       1.56292378       7.99788060      95.10792473      -0.00018841       0.00029577       0.00057445        0        0       -1       58       26
Fe       1.56292178      10.65029292      96.10935201      -0.00016336      -0.00052619      -0.00034361        0        0       -1       58       26
Fe       1.56295763       1.71075473      95.78375844      -0.00020966      -0.00038588      -0.00081411        0        0       -1       58       26
Fe       0.14167228       9.17362486      72.93986374       0.00002185      -0.00048952      -0.00003316        0        0       -1       56       26
Fe       0.14350559      11.53231840      74.07038407      -0.00003022       0.00045005       0.00556424        0        0       -1       53       26
Fe       1.55670337      13.35763402      72.93955799       0.00000871       0.00036543       0.00002121        0        0       -1       58       26
Fe       0.14334973      14.10530283      74.84385891      -0.00003128      -0.00055486      -0.00096943        0        0       -1       57       26
Fe       1.55861123      15.93029812      74.07788958      -0.00003267      -0.00027108      -0.00074901        0        0       -1       54       26
Fe       0.14389076      16.80415069      75.80221059      -0.00004898       0.00024892       0.00082311        0        0       -1       55       26
Fe       1.55836247      18.54575736      74.86498731      -0.00003972      -0.00008664       0.00020288        0        0       -1       56       26
Fe       0.14410255      19.42525591      76.69555067      -0.00006770      -0.00036213      -0.00033149        0        0       -1       57       26
Fe       1.55881808      21.24386258      75.84140184      -0.00006489      -0.00012736      -0.00026685        0        0       -1       53       26
Fe       0.14442579      22.08209950      77.65218452      -0.00009752       0.00006327       0.00007913        0        0       -1       58       26
Fe       1.55908812      23.87865216      76.75810303      -0.00010533      -0.00017606       0.00008729        0        0       -1       57       26
Fe       0.14167796      17.80016579      72.93959755      -0.00000701      -0.00019928      -0.00002790        0        0       -1       58       26
Fe       0.14345617      20.37891169      74.09067899      -0.00003995      -0.00013658       0.00009262        0        0       -1       54       26
Fe       1.55666724      22.26577054      72.93976899       0.00000298      -0.00006801      -0.00003151        0        0       -1       58       26
Fe       0.14325633      22.98460849      74.90936540      -0.00006217      -0.00017549      -0.00005726        0        0       -1       54       26
Fe       0.14795840      -0.10753081      96.62209829      -0.00020308      -0.00059463      -0.00076892        0        0       -1       58       26
Fe       0.14071823       5.53304932      71.49173137       0.00005471      -0.00021621       0.00032970        0        0       -1       56       26
Fe       1.55666086       7.19823606      72.93892366       0.00002224       0.00019028       0.00001154        0        0       -1       59       26
Fe       0.14002139       7.80158417      70.55560538       0.00008560       0.00024719      -0.00031149        0        0       -1       58       26
Fe       1.55527447       9.66870020      71.08690210       0.00007771       0.00116785      -0.00124418        0        0       -1       53       26
Fe       0.13941238      10.49928982      69.31916146       0.00008015      -0.00073760       0.00238185        0        0       -1       57       26
Fe       1.55455249      12.35774552      70.10170108       0.00007714      -0.00191916       0.00357972        0        0       -1       55       26
Fe       0.13898722      13.17584544      68.33347772       0.00007032       0.00139655      -0.00297433        0        0       -1       58       26
Fe       1.55429297      14.97609680      69.22455671       0.00005088       0.00062359      -0.00137872        0        0       -1       57       26
Fe       0.13866974      15.81559131      67.41974433       0.00006727      -0.00070957       0.00144092        0        0       -1       58       26
Fe       1.55395023      17.62978754      68.28115782       0.00005153      -0.00043921       0.00092941        0        0       -1       58       26
Fe       0.13835799      18.46209322      66.47756139       0.00009165       0.00036873      -0.00100824        0        0       -1       58       26
Fe       1.55365109      20.26568425      67.36002770       0.00008284       0.00033922      -0.00042489        0        0       -1       58       26
Fe       0.13806263      21.09489349      65.53563924       0.00010903      -0.00012734       0.00068808        0        0       -1       58       26
Fe       1.55335219      22.90370574      66.40090571       0.00010745      -0.00019008       0.00033374        0        0       -1       58       26
Fe       0.13777192      23.72456427      64.56786376       0.00011411       0.00021836      -0.00037298        0        0       -1       58       26
Fe       1.55303173       1.34925927      65.42327451       0.00011502       0.00024131      -0.00017378        0        0       -1       58       26
Fe       0.13749218       2.17646426      63.58002062       0.00010580      -0.00006776       0.00029155        0        0       -1       58       26
Fe       1.55483425       3.34127675      70.77552571       0.00010337       0.00018310       0.00026778        0        0       -1       57       26
Fe       0.13925999       4.16228239      68.92171119       0.00011264       0.00029895      -0.00014659        0        0       -1       58       26
Fe       1.55466641       6.01075426      69.58032908       0.00010225       0.00018977      -0.00040219        0        0       -1       58       26
Fe       0.13890281       6.83235544      67.80136017       0.00010792      -0.00013167       0.00045550        0        0       -1       56       26
Fe       1.55410608       8.62997305      68.63679836       0.00009751      -0.00031839       0.00055713        0        0       -1       56       26
Fe       0.13847513       9.47548696      66.79134570       0.00010928       0.00036276      -0.00094291        0        0       -1       58       26
Fe       1.55373887      11.32975930      67.53691485       0.00009012       0.00107271      -0.00221965        0        0       -1       58       26
Fe       0.13812987      12.16047499      65.74221291       0.00011118      -0.00080922       0.00195901        0        0       -1       58       26
Fe       1.55338920      14.00166178      66.55216457       0.00009192      -0.00111370       0.00238513        0        0       -1       58       26
Fe       0.13781663      14.82628372      64.75899756       0.00011698       0.00087307      -0.00203338        0        0       -1       58       26
Fe       1.55307923      16.64660707      65.61437503       0.00010910       0.00078247      -0.00138875        0        0       -1       58       26
Fe       0.13752082      17.47124060      63.80550938       0.00013346      -0.00052553       0.00139977        0        0       -1       58       26
Fe       1.55278470      19.28684550      64.66514929       0.00011585      -0.00048277       0.00097860        0        0       -1       58       26
Fe       0.13726094      20.10771287      62.84736191       0.00014154       0.00049445      -0.00091544        0        0       -1       58       26
Fe       1.55251011      21.91716203      63.70886096       0.00012039       0.00037955      -0.00059396        0        0       -1       58       26
Fe       0.13700575      22.73956912      61.88148715       0.00012209      -0.00030888       0.00071047        0        0       -1       58       26
Fe       1.55224527       0.36866939      62.73403439       0.00011098      -0.00002290       0.00053674        0        0       -1       58       26
Fe       0.13676374       1.19541723      60.90201035       0.00011094       0.00050190      -0.00040173        0        0       -1       58       26
Fe       0.13830663       3.15933787      66.25521780       0.00011583       0.00008823      -0.00005515        0        0       -1       58       26
Fe       1.55359761       4.98004527      67.05142160       0.00011386       0.00005853       0.00015532        0        0       -1       58       26
Fe       0.13797871       5.81293032      65.20808467       0.00011219       0.00011565      -0.00019627        0        0       -1       58       26
Fe       1.55324301       7.65063510      65.98449433       0.00010685       0.00044342      -0.00047382        0        0       -1       58       26
Fe       0.13765174       8.48172046      64.16469273       0.00011562      -0.00004489       0.00049828        0        0       -1       58       26
Fe       1.55288250      10.31382184      64.96522070       0.00011449      -0.00044143       0.00095004        0        0       -1       58       26
Fe       0.13733598      11.14824686      63.14571215       0.00013081       0.00039750      -0.00101341        0        0       -1       58       26
Fe       1.55256658      12.98944339      63.94077402       0.00013014       0.00090405      -0.00166166        0        0       -1       58       26
Fe       0.13704178      13.81607395      62.13371400       0.00015317      -0.00051167       0.00142397        0        0       -1       58       26
Fe       1.55227039      15.64915824      62.95687268       0.00014305      -0.00078574       0.00159507        0        0       -1       58       26
Fe       0.13678369      16.47062026      61.14844623       0.00017466       0.00070482      -0.00144117        0        0       -1       58       26
Fe       1.55201200      18.29238212      61.99265004       0.00015107       0.00060709      -0.00128290        0        0       -1       58       26
Fe       0.13656079      19.11331064      60.17668236       0.00015903      -0.00057109       0.00114952        0        0       -1       58       26
Fe       1.55177779      20.92874003      61.02682486       0.00013847      -0.00020060       0.00097541        0        0       -1       58       26
Fe       0.13635221      21.75145848      59.20530900       0.00014006       0.00068520      -0.00072287        0        0       -1       58       26