19584
Lattice="16.98 0.0 0.0 0.0 81.03886722 0.0 0.0 0.0 162.05537975" Properties=species:S:1:pos:R:3:force:R:3:map_shift:I:3:n_neighb:I:1:Z:I:1 nneightol=1.2 virial="-430.45082507 -0.13958182 0.0346569 -0.13958182 -508.48752422 3.07188677 0.0346569 3.07188677 -271.59684544" energy=-78381.45523696 cutoff=5.3 pbc="T T T"
Fe      13.88705974      64.61801082       1.73033570      -0.00022050      -0.00001904       0.00004252       -1       -1        0       58       26 
Fe      -0.28052614       2.55227666     122.90309345      -0.00002923       0.00003429       0.00001520        0        0       -1       53       26 
Fe       1.13539208       4.41174662     122.17752011      -0.00003300       0.00002514       0.00028467        0        0       -1       53       26 
Fe      -0.27907134       5.20029655     123.90428343      -0.00004278      -0.00007216      -0.00013068        0        0       -1       53       26 
Fe       1.13490245       7.00246653     123.00579699      -0.00003038      -0.00000983      -0.00001298        0        0       -1       54       26 
Fe      -0.27859760       7.70596494     124.90948538      -0.00004826       0.00000747      -0.00001585        0        0       -1       55       26 
Fe       1.13588832       9.56156861     124.19149688      -0.00004146      -0.00001195      -0.00001226        0        0       -1       55       26 
Fe      -0.27770938      10.25913833     126.06093835      -0.00005723      -0.00000377       0.00002100        0        0       -1       56       26 
Fe       1.13684337      12.09057925     125.31850142      -0.00005248      -0.00000417      -0.00000197        0        0       -1       56       26 
Fe      -0.27679142      12.79401387     127.26907784      -0.00006883      -0.00000314      -0.00000434        0        0       -1       58       26 
Fe       1.13757484      14.68642360     126.65590097      -0.00006179      -0.00000457       0.00001835        0        0       -1       58       26 
Fe      -0.27603891      15.37624986     128.53639310      -0.00007609      -0.00003142      -0.00002020        0        0       -1       58       26 
Fe       1.13849472      17.25788600     127.86982427      -0.00006877      -0.00001000      -0.00002680        0        0       -1       58       26 
Fe      -0.27518522      17.95275770     129.75204735      -0.00008812       0.00001443       0.00002565        0        0       -1       58       26 
Fe       1.13936526      19.83253958     129.08085239      -0.00008266      -0.00002385      -0.00000050        0        0       -1       58       26 
Fe      -0.27436036      20.53233140     130.96489958      -0.00009625      -0.00003332      -0.00000238        0        0       -1       58       26 
Fe       1.14018491      22.42453575     130.31159257      -0.00008662       0.00003178       0.00005168        0        0       -1       58       26 
Fe      -0.27359074      23.11761028     132.18077165      -0.00010404      -0.00001978      -0.00005853        0        0       -1       58       26 
Fe       1.14097879      25.00527046     131.50518268      -0.00010059      -0.00008567      -0.00012896        0        0       -1       58       26 
Fe      -0.27282560      25.69611384     133.37450951      -0.00011366       0.00003187       0.00013368        0        0       -1       58       26 
Fe       1.14173806      27.58007021     132.68837675      -0.00010426       0.00007366       0.00019537        0        0       -1       58       26 
Fe      -0.27209224      28.27038730     134.55864784      -0.00011995      -0.00009342      -0.00020210        0        0       -1       58       26 
Fe       1.14248366      30.15271148     133.86594448      -0.00011879      -0.00009844      -0.00022000        0        0       -1       58       26 
Fe      -0.27137926      30.84122152     135.73550290      -0.00012793       0.00006718       0.00019813        0        0       -1       58       26 
Fe       1.14320378      32.71757432     135.02982917      -0.00012727       0.00004135       0.00017452        0        0       -1       58       26 
Fe      -0.27067444      33.40669471     136.90474452      -0.00013687      -0.00007295      -0.00014753        0        0       -1       58       26 
Fe       1.14392992      35.28015820     136.19772808      -0.00013853      -0.00005640      -0.00010625        0        0       -1       58       26 
Fe      -0.26998885      35.97074208     138.07746062      -0.00014417       0.00000979       0.00007133        0        0       -1       58       26 
Fe       1.14462685      37.84519862     137.37686777      -0.00014578      -0.00000075       0.00002594        0        0       -1       58       26 
Fe      -0.26933533      38.53648022     139.25790978      -0.00015375      -0.00001573      -0.00001688        0        0       -1       58       26 
Fe       1.14529143      40.41288859     138.56309047      -0.00015016      -0.00002154       0.00003084        0        0       -1       58       26 
Fe       1.13472282       0.56726739     123.20339743      -0.00003008      -0.00001815      -0.00000687        0        0       -1       58       26 
Fe      -0.27814672       1.34992187     125.18960535      -0.00005527       0.00000152       0.00001778        0        0       -1       56       26 
Fe       1.13619188       3.28992248     124.65707163      -0.00004154       0.00000438      -0.00002478        0        0       -1       55       26 
Fe      -0.27746875       3.98438100     126.46942944      -0.00005802      -0.00002194      -0.00003004        0        0       -1       58       26 
Fe       1.13704453       5.87140488     125.73440700      -0.00005515      -0.00000232       0.00002579        0        0       -1       58       26 
Fe      -0.27665706       6.54825885     127.58632609      -0.00007095       0.00000393       0.00004903        0        0       -1       58       26 
Fe       1.13781540       8.39951784     126.81012551      -0.00006236       0.00000213       0.00003303        0        0       -1       58       26 
Fe      -0.27587123       9.08233519     128.70383434      -0.00007864      -0.00002381      -0.00006084        0        0       -1       58       26 
Fe       1.13865001      10.93697413     127.97087967      -0.00007305      -0.00002356      -0.00002796        0        0       -1       58       26 
Fe      -0.27505465      11.62699938     129.87611703      -0.00008911      -0.00000858       0.00003245        0        0       -1       58       26 
Fe       1.13948601      13.49226395     129.18401006      -0.00008322      -0.00000162      -0.00000526        0        0       -1       58       26 
Fe      -0.27424769      14.19042398     131.08494600      -0.00009656      -0.00000205       0.00000157        0        0       -1       58       26 
Fe       1.14028149      16.07096954     130.42082288      -0.00009095      -0.00001398       0.00003136        0        0       -1       58       26 
Fe      -0.27346777      16.76728276     132.30581001      -0.00010580      -0.00003427      -0.00003417        0        0       -1       58       26 
Fe       1.14108290      18.64911110     131.63434013      -0.00010221      -0.00001598      -0.00004171        0        0       -1       58       26 
Fe      -0.27270662      19.34491629     133.51626204      -0.00011451       0.00000509       0.00004710        0        0       -1       58       26 
Fe       1.14185328      21.22879000     132.84511730      -0.00010749      -0.00001701       0.00001675        0        0       -1       58       26 
Fe      -0.27197810      21.92356260     134.72380887      -0.00012215      -0.00001993      -0.00002783        0        0       -1       58       26 
Fe       1.14259317      23.81008000     134.05263405      -0.00012040       0.00000126       0.00004508        0        0       -1       58       26 
Fe      -0.27126392      24.50226033     135.92610979      -0.00013023      -0.00004296      -0.00002541        0        0       -1       58       26 
Fe       1.14332136      26.38700609     135.24557597      -0.00012165      -0.00005497      -0.00012616        0        0       -1       58       26 
Fe      -0.27057501      27.07779860     137.11794054      -0.00014016       0.00002987       0.00009488        0        0       -1       58       26 
Fe       1.14402622      28.96032986     136.42986847      -0.00013441       0.00003630       0.00018015        0        0       -1       58       26 
Fe      -0.26990201      29.65010604     138.30237964      -0.00014396      -0.00008220      -0.00012532        0        0       -1       58       26 
Fe       1.14470608      31.53007488     137.60752690      -0.00013526      -0.00007081      -0.00016795        0        0       -1       58       26 
Fe      16.71074941      32.21922381     139.48122150      -0.00015551       0.00002546       0.00011589       -1        0       -1       58       26 
Fe       1.14538822      34.09607670     138.78074054      -0.00014319       0.00001845       0.00010321        0        0       -1       58       26 
Fe      -0.26861191      34.78575594     140.65746332      -0.00015919      -0.00004440      -0.00006077        0        0       -1       58       26 
Fe       1.14603108      36.66123493     139.95680487      -0.00015339      -0.00004514      -0.00004179        0        0       -1       58       26 
Fe      -0.26801558      37.35174822     141.83582516      -0.00016820      -0.00002681       0.00001465        0        0       -1       58       26 
Fe       1.14664023      39.22758365     141.13817131      -0.00015951      -0.00001443      -0.00001646        0        0       -1       58       26 
Fe      -0.26745138      39.91865273     143.01786526      -0.00017255      -0.00000660       0.00002917        0        0       -1       58       26 
Fe      -0.27650893       0.19822627     127.80327191      -0.00007570      -0.00005403      -0.00006677        0        0       -1       58       26 
Fe       1.13806576       2.07190355     127.09300808      -0.00006435      -0.00001866      -0.00005523        0        0       -1       58       26 
Fe      -0.27567132       2.77089709     128.97758032      -0.00007851       0.00002860       0.00007295        0        0       -1       58       26 
Fe       1.13882783       4.66790473     128.31361662      -0.00007837       0.00001777       0.00007251        0        0       -1       58       26 
Fe      -0.27489911       5.34917090     130.17316496      -0.00008980      -0.00005638      -0.00011226        0        0       -1       58       26 
Fe       1.13961543       7.22476675     129.45307760      -0.00008344      -0.00004128      -0.00009518        0        0       -1       58       26 
Fe      -0.27412958       7.90540215     131.32699319      -0.00009780       0.00002741       0.00011088        0        0       -1       58       26 
Fe       1.14040408       9.76734576     130.59592202      -0.00009370       0.00001405       0.00006663        0        0       -1       58       26 
Fe      -0.27335044      10.45632811     132.48531597      -0.00010653      -0.00003785      -0.00007132        0        0       -1       58       26 
Fe       1.14119774      12.32078383     131.77463601      -0.00010167      -0.00002917      -0.00002757        0        0       -1       58       26 
Fe      -0.27257821      13.01565961     133.66797501      -0.00011612      -0.00000772       0.00002088        0        0       -1       58       26 
Fe       1.14198042      14.88796357     132.97874778      -0.00011083      -0.00001535      -0.00001612        0        0       -1       58       26 
Fe      -0.27184590      15.58444599     134.86842298      -0.00012370      -0.00001086       0.00002304        0        0       -1       58       26 
Fe       1.14272760      17.46329675     134.19050411      -0.00012064       0.00000314       0.00004566        0        0       -1       58       26 
Fe      -0.27112873      18.15870005     136.07451202      -0.00013315      -0.00003050      -0.00006244        0        0       -1       58       26 
Fe       1.14345161      20.03998921     135.39767114      -0.00012707      -0.00004818      -0.00006291        0        0       -1       58       26 
Fe      -0.27044227      20.73438533     137.27856018      -0.00014097      -0.00000317       0.00007966        0        0       -1       58       26 
Fe       1.14414733      22.61736602     136.60188163      -0.00013860       0.00001311       0.00003384        0        0       -1       58       26 
Fe      -0.26978316      23.31054173     138.47980336      -0.00014894      -0.00002123      -0.00006538        0        0       -1       58       26 
Fe       1.14482665      25.19419889     137.80066888      -0.00014565      -0.00003193       0.00001561        0        0       -1       58       26 
Fe      -0.26914200      25.88580471     139.67607271      -0.00015652      -0.00003013       0.00000956        0        0       -1       58       26 
Fe       1.14547823      27.76841733     138.99150057      -0.00015529      -0.00002520      -0.00007217        0        0       -1       58       26 
Fe      -0.26852665      28.45895443     140.86602694      -0.00016178       0.00000210       0.00002185        0        0       -1       58       26 
Fe       1.14611799      30.33986708     140.17605537      -0.00016471      -0.00000032       0.00008614        0        0       -1       58       26 
Fe      -0.26792728      31.02976606     142.05078315      -0.00017012      -0.00003907      -0.00004717        0        0       -1       58       26 
Fe       1.14673078      32.90870944     141.35617981      -0.00016833      -0.00004470      -0.00006741        0        0       -1       58       26 
Fe      -0.26736351      33.59848734     143.23200910      -0.00017489      -0.00001393       0.00002086        0        0       -1       58       26 
Fe       1.14731750      35.47569173     142.53462188      -0.00017676      -0.00000955       0.00002155        0        0       -1       58       26 
Fe      -0.26682799      36.16589718     144.41207531      -0.00018200      -0.00002099       0.00000594        0        0       -1       58       26 
Fe       1.14786587      38.04237563     143.71460773      -0.00017691      -0.00002144       0.00001807        0        0       -1       58       26 
Fe      -0.26632748      38.73311185     145.59323827      -0.00018599      -0.00003487      -0.00003831        0        0       -1       58       26 
Fe       1.13976836       0.89079070     129.67341089      -0.00008306       0.00001231       0.00007925        0        0       -1       58       26 
Fe      -0.27397123       1.58091788     131.54795412      -0.00009815      -0.00004968      -0.00008301        0        0       -1       58       26 
Fe       1.14057270       3.46187654     130.85616651      -0.00009632      -0.00004665      -0.00010304        0        0       -1       58       26 
Fe      -0.27320474       4.15034275     132.73295572      -0.00010865       0.00003062       0.00010546        0        0       -1       58       26 
Fe       1.14134561       6.03198171     132.04126543      -0.00010213       0.00002854       0.00012674        0        0       -1       58       26 
Fe      -0.27246441       6.71757150     133.91404603      -0.00011807      -0.00006775      -0.00012720        0        0       -1       58       26 
Fe       1.14210553       8.59053002     133.20441501      -0.00011336      -0.00005032      -0.00011577        0        0       -1       58       26 
Fe      -0.27171547       9.27861048     135.08356149      -0.00012411       0.00002899       0.00009971        0        0       -1       58       26 
Fe       1.14285232      11.14743639     134.37249607      -0.00012031       0.00000210       0.00006254        0        0       -1       58       26 
Fe      -0.27100363      11.83951601     136.25802848      -0.00013526      -0.00004565      -0.00004690        0        0       -1       58       26 
Fe       1.14357408      13.71044516     135.55766115      -0.00012866      -0.00001444      -0.00001409        0        0       -1       58       26 
Fe      -0.27031916      14.40482379     137.44481391      -0.00014010      -0.00000737      -0.00000447        0        0       -1       58       26 
Fe       1.14427659      16.28001386     136.75550493      -0.00013603      -0.00004102      -0.00003070        0        0       -1       58       26 
Fe      -0.26965703      16.97475314     138.64078711      -0.00015030      -0.00001798       0.00004801        0        0       -1       58       26 
Fe       1.14495835      18.85342342     137.95772458      -0.00014276       0.00002209       0.00006447        0        0       -1       58       26 
Fe      -0.26901822      19.54756151     139.84021061      -0.00015411      -0.00003559      -0.00008291        0        0       -1       58       26 
Fe       1.14560373      21.42819706     139.15903377      -0.00014854      -0.00007062      -0.00008160        0        0       -1       58       26 
Fe      -0.26841481      22.12144419     141.03916038      -0.00016262      -0.00000053       0.00010239        0        0       -1       58       26 
Fe       1.14622467      24.00314282     140.35775496      -0.00015423       0.00001939       0.00006241        0        0       -1       58       26 
Fe      -0.26783450      24.69541234     142.23582513      -0.00016911      -0.00004453      -0.00007671        0        0       -1       58       26 
Fe       1.14682443      26.57721759     141.55212399      -0.00016006      -0.00004553      -0.00002332        0        0       -1       58       26 
Fe      -0.26727930      27.26848615     143.42870289      -0.00017415      -0.00001085       0.00005183        0        0       -1       58       26 
Fe       1.14740006      29.14950161     142.74138067      -0.00016829      -0.00001787      -0.00000150        0        0       -1       58       26 
Fe      -0.26674794      29.84009193     144.61741553      -0.00018166      -0.00003766      -0.00002384        0        0       -1       58       26 
Fe       1.14795118      31.71983735     143.92633747      -0.00017263      -0.00002261       0.00000592        0        0       -1       58       26 
Fe      -0.26624743      32.41010610     145.80255156      -0.00018652      -0.00001623       0.00002762        0        0       -1       58       26 
Fe       1.14846589      34.28855407     145.10847981      -0.00018364      -0.00002143       0.00001051        0        0       -1       58       26 
Fe      -0.26578293      34.97886459     146.98542098      -0.00019289      -0.00003771      -0.00003790        0        0       -1       58       26 
Fe       1.14895021      36.85631804     146.28974420      -0.00018755      -0.00004099      -0.00003397        0        0       -1       58       26 
Fe      -0.26535023      37.54689396     148.16757018      -0.00019762      -0.00001489       0.00005408        0        0       -1       58       26 
Fe       1.14940152      39.42392124     147.47176140      -0.00019731      -0.00000347       0.00004686        0        0       -1       58       26 
Fe      -0.26495074      40.11478068     149.35024164      -0.00020216      -0.00003828      -0.00005656        0        0       -1       58       26 
Fe      -0.27232635       0.38980044     134.11334128      -0.00011772       0.00001005       0.00004884        0        0       -1       58       26 
Fe       1.14224012       2.27025487     133.42449733      -0.00011669       0.00001173       0.00008858        0        0       -1       58       26 
Fe      -0.27159646       2.95979277     135.30193699      -0.00012637      -0.00005894      -0.00008754        0        0       -1       58       26 
Fe       1.14297669       4.83885884     134.60955333      -0.00012386      -0.00004940      -0.00011559        0        0       -1       58       26 
Fe      -0.27088953       5.52804569     136.48644889      -0.00013561       0.00003428       0.00009853        0        0       -1       58       26 
Fe       1.14370205       7.40532104     135.78947900      -0.00013108       0.00001233       0.00012130        0        0       -1       58       26 
Fe      -0.27019814       8.09457582     137.66657816      -0.00013977      -0.00006979      -0.00009236        0        0       -1       58       26 
Fe       1.14440480       9.96844049     136.96361141      -0.00013872      -0.00003925      -0.00009296        0        0       -1       58       26 
Fe      -0.26953706      10.65923401     138.84407308      -0.00015212       0.00001808       0.00005955        0        0       -1       58       26 
Fe       1.14507924      12.53197034     138.14233880      -0.00014657      -0.00001718       0.00003885        0        0       -1       58       26 
Fe      -0.26890256      13.22450087     140.02572956      -0.00015409      -0.00003935      -0.00001331        0        0       -1       58       26 
Fe       1.14572729      15.09872160     139.33016680      -0.00015471      -0.00000505       0.00000771        0        0       -1       58       26 
Fe      -0.26829401      15.79221491     141.21419430      -0.00016608      -0.00001885      -0.00002859        0        0       -1       58       26 
Fe       1.14634521      17.66886756     140.52476691      -0.00016199      -0.00005184      -0.00004569        0        0       -1       58       26 
Fe      -0.26772306      18.36246159     142.40774996      -0.00016916      -0.00000986       0.00005697        0        0       -1       58       26 
Fe       1.14693689      20.24114721     141.72204875      -0.00017112       0.00001873       0.00007929        0        0       -1       58       26 
Fe      -0.26718039      20.93430592     143.60340457      -0.00017717      -0.00004605      -0.00008966        0        0       -1       58       26 
Fe       1.14749718      22.81429991     142.91905960      -0.00017803      -0.00006750      -0.00009430        0        0       -1       58       26 
Fe      -0.26666565      23.50679479     144.79876739      -0.00018237       0.00000764       0.00009190        0        0       -1       58       26 
Fe       1.14803303      25.38739086     144.11400012      -0.00018261       0.00001308       0.00007919        0        0       -1       58       26 
Fe      -0.26617661      26.07916058     145.99234493      -0.00018869      -0.00005444      -0.00008724        0        0       -1       58       26 
Fe       1.14854213      27.95967652     145.30574919      -0.00019045      -0.00005072      -0.00006052        0        0       -1       58       26 
Fe      -0.26571495      28.65084447     147.18314677      -0.00019395      -0.00000237       0.00006742        0        0       -1       58       26 
Fe       1.14902544      30.53076269     146.49399501      -0.00019166      -0.00000550       0.00004581        0        0       -1       58       26 
Fe      -0.26528189      31.22154021     148.37102969      -0.00019856      -0.00004267      -0.00006067        0        0       -1       58       26 
Fe       1.14947450      33.10056421     147.67928709      -0.00019879      -0.00004999      -0.00004297        0        0       -1       58       26 
Fe      -0.26488593      33.79117112     149.55641963      -0.00020302      -0.00001423       0.00005882        0        0       -1       58       26 
Fe       1.14988726      35.66935850     148.86270865      -0.00019894      -0.00000048       0.00005091        0        0       -1       58       26 
Fe      -0.26452585      36.35999352     150.74029137      -0.00020785      -0.00004393      -0.00006155        0        0       -1       58       26 
Fe       1.15026720      38.23758401     150.04554513      -0.00020453      -0.00005658      -0.00005441        0        0       -1       58       26 
Fe      -0.26420038      38.92834071     151.92361759      -0.00021056      -0.00001555       0.00005806        0        0       -1       58       26 
Fe       1.14381804       1.08054799     135.99226850      -0.00012967      -0.00002753      -0.00006287        0        0       -1       58       26 
Fe      -0.27009308       1.77131955     137.87138282      -0.00014245       0.00001431       0.00005428        0        0       -1       58       26 
Fe       1.14451409       3.64977405     137.17977834      -0.00013845      -0.00000372       0.00008607        0        0       -1       58       26 
Fe      -0.26943546       4.34019850     139.05790066      -0.00015448      -0.00006409      -0.00006943        0        0       -1       58       26 
Fe       1.14518588       6.21793481     138.36385210      -0.00014672      -0.00003267      -0.00009659        0        0       -1       58       26 
Fe      -0.26880344       6.90833346     140.24171276      -0.00015631       0.00001828       0.00006332        0        0       -1       58       26 
Fe       1.14583702       8.78475547     139.54468590      -0.00015517      -0.00001076       0.00007651        0        0       -1       58       26 
Fe      -0.26819593       9.47548449     141.42347888      -0.00016996      -0.00004931      -0.00004532        0        0       -1       58       26 
Fe       1.14645565      11.35052741     140.72471922      -0.00016086      -0.00002329      -0.00004398        0        0       -1       58       26 
Fe      -0.26762247      12.04209506     142.60539443      -0.00016989      -0.00000915       0.00001533        0        0       -1       58       26 
Fe       1.14704644      13.91700440     141.90838457      -0.00016802      -0.00003191       0.00000189        0        0       -1       58       26 
Fe      -0.26707703      14.60943260     143.79045479      -0.00018184      -0.00002635       0.00001308        0        0       -1       58       26 
Fe       1.14761084      16.48536504     143.09723017      -0.00017253      -0.00000385       0.00002693        0        0       -1       58       26 
Fe      16.71343929      17.17820989     144.97954190      -0.00018328      -0.00003387      -0.00002982       -1        0       -1       58       26 
Fe       1.14813397      19.05563140     144.28999741      -0.00017821      -0.00005082      -0.00005558        0        0       -1       58       26 
Fe      -0.26608557      19.74843766     146.17165731      -0.00019163      -0.00000946       0.00005300        0        0       -1       58       26 
Fe       1.14862755      21.62708618     145.48433926      -0.00018391       0.00000792       0.00007704        0        0       -1       58       26 
Fe      -0.26564144      22.31957334     147.36497764      -0.00019505      -0.00005274      -0.00006632        0        0       -1       58       26 
Fe       1.14909475      24.19901798     146.67839153      -0.00018816      -0.00006094      -0.00008721        0        0       -1       58       26 
Fe      -0.26522334      24.89105155     148.55790879      -0.00019963      -0.00000031       0.00008014        0        0       -1       58       26 
Fe       1.14953538      26.77080774     147.87080171      -0.00019529       0.00000732       0.00008128        0        0       -1       58       26 
Fe      -0.26483280      27.46240622     149.74939693      -0.00020471      -0.00005459      -0.00007590        0        0       -1       58       26 
Fe       1.14994765      29.34203716     149.06086218      -0.00019840      -0.00005938      -0.00007033        0        0       -1       58       26 
Fe      -0.26447311      30.03324368     150.93880943      -0.00020761      -0.00000836       0.00007168        0        0       -1       58       26 
Fe       1.15032770      31.91240379     150.24841008      -0.00020624       0.00000197       0.00006076        0        0       -1       58       26 
Fe      -0.26414860      32.60334344     152.12610830      -0.00021159      -0.00004809      -0.00006211        0        0       -1       58       26 
Fe       1.15066925      34.48189919     151.43389868      -0.00020908      -0.00005958      -0.00005758        0        0       -1       58       26 
Fe      -0.26386279      35.17270325     153.31163410      -0.00021465      -0.00001137       0.00005848        0        0       -1       58       26 
Fe       1.15097458      37.05071707     152.61808489      -0.00021377      -0.00000430       0.00005789        0        0       -1       58       26 
Fe      -0.26361398      37.74150915     154.49607934      -0.00021611      -0.00004912      -0.00004850        0        0       -1       58       26 
Fe       1.15124438      39.61914751     153.80180063      -0.00021797      -0.00004877      -0.00004316        0        0       -1       58       26 
Fe      -0.26340125      40.30997497     155.68005486      -0.00022053      -0.00001878       0.00002889        0        0       -1       58       26 
Fe      -0.26870895       0.58472451     140.44327029      -0.00015789      -0.00004342      -0.00003438        0        0       -1       58       26 
Fe       1.14593316       2.46224260     139.75049349      -0.00015822      -0.00002819      -0.00006341        0        0       -1       58       26 
Fe      -0.26810773       3.15329605     141.62950705      -0.00016817       0.00000422       0.00004508        0        0       -1       58       26 
Fe       1.14654897       5.03093502     140.93620416      -0.00016037      -0.00001132       0.00006505        0        0       -1       58       26 
Fe      -0.26753601       5.72188073     142.81469755      -0.00016939      -0.00004307      -0.00003779        0        0       -1       58       26 
Fe       1.14713836       7.59908343     142.12001212      -0.00016991      -0.00003397      -0.00004918        0        0       -1       58       26 
Fe      -0.26699295       8.29006599     143.99862948      -0.00018120      -0.00001689       0.00002026        0        0       -1       58       26 