10128
Lattice="16.98 0.0 0.0 0.0 58.2732666 0.0 0.0 0.0 116.560304" Properties=species:S:1:pos:R:3:force:R:3:map_shift:I:3:n_neighb:I:1:Z:I:1 nneightol=1.2 virial="-152.30946603 -0.82994064 0.04093355 -0.82994064 -275.29082668 0.28769828 0.04093355 0.28769828 29.10714496" energy=-40493.52058785 cutoff=5.3 pbc="T T T"
Fe      15.49561856      54.94584566       2.88064304      -0.00086689      -0.00337243       0.00031437       -1       -1        0       58       26
Fe      -0.12960537       2.29993415      88.67727874      -0.00229717      -0.00345850      -0.00184969        0        0       -1       57       26
Fe       1.28160572       4.27953040      88.42609829       0.00043127      -0.00249725      -0.00009119        0        0       -1       53       26
Fe      -0.12429894       4.81408489      90.24288100       0.00075283      -0.00124847      -0.00390674        0        0       -1       57       26
Fe       1.28978463       6.73492606      89.66144864      -0.00074004      -0.00068712       0.00261464        0        0       -1       55       26
Fe      -0.11773526       7.32108842      91.50193533      -0.00200745       0.00145505       0.00330486        0        0       -1       56       26
Fe       1.29568310       9.18925980      90.81167742      -0.00152672       0.00139812      -0.00024678        0        0       -1       56       26
Fe      -0.11230527       9.77269742      92.77138563      -0.00146180      -0.00167236      -0.00236070        0        0       -1       58       26
Fe       1.30020100      11.69793801      92.23771551      -0.00250123      -0.00100903       0.00037658        0        0       -1       58       26
Fe      -0.10805537      12.25926934      94.15050915       0.00095549      -0.00166014       0.00053658        0        0       -1       58       26
Fe       1.30534435      14.16777998      93.56630153       0.00013868      -0.00212435       0.00108264        0        0       -1       58       26
Fe      -0.10282490      14.73141040      95.50140990      -0.00054821      -0.00139741      -0.00043719        0        0       -1       58       26
Fe       1.31030943      16.64176220      94.94519161       0.00105462      -0.00165945      -0.00131233        0        0       -1       58       26
Fe      -0.09854816      17.21108029      96.88489084       0.00000697      -0.00217556       0.00086135        0        0       -1       58       26
Fe       1.31500195      19.13742610      96.36851860      -0.00076709      -0.00185934       0.00109645        0        0       -1       58       26
Fe      -0.09410220      19.70147412      98.29019668      -0.00249225      -0.00164477       0.00098945        0        0       -1       58       26
Fe       1.31928573      21.63233274      97.76588167      -0.00131393      -0.00193599      -0.00015512        0        0       -1       58       26
Fe      -0.09043643      22.19078107      99.67785150      -0.00120724      -0.00201138      -0.00073389        0        0       -1       58       26
Fe       1.32297860      24.11405214      99.12421135      -0.00048375      -0.00071524      -0.00198268        0        0       -1       58       26
Fe      -0.08689404      24.67142833     101.04195543      -0.00172483       0.00017731      -0.00070695        0        0       -1       58       26
Fe       1.32637800      26.59054916     100.48117115      -0.00027161       0.00031195      -0.00023067        0        0       -1       58       26
Fe      -0.08397391      27.14945026     102.40413698      -0.00166371       0.00021374      -0.00007807        0        0       -1       58       26
Fe       1.28500807       0.29278087      88.83539914       0.00046843      -0.00049861       0.00474913        0        0       -1       57       26
Fe      -0.11777624       0.91129347      90.99495478      -0.00231239      -0.00229132      -0.00528097        0        0       -1       57       26
Fe       1.29342390       2.83960015      90.60237458      -0.00136120      -0.00040584      -0.00140721        0        0       -1       56       26
Fe      -0.11375373       3.42544861      92.52494376       0.00027382      -0.00119935      -0.00201654        0        0       -1       58       26
Fe       1.29891154       5.38461259      92.09091896      -0.00018728      -0.00131418       0.00043767        0        0       -1       58       26
Fe      -0.10868964       5.94642326      93.96600649      -0.00059325      -0.00140164      -0.00143067        0        0       -1       58       26
Fe       1.30399396       7.87376246      93.39397271       0.00109372      -0.00148978      -0.00023750        0        0       -1       58       26
Fe      -0.10380647       8.43051853      95.29789780      -0.00145571      -0.00074438       0.00158052        0        0       -1       58       26
Fe       1.30910465      10.34116351      94.70726804      -0.00027285      -0.00269449      -0.00211252        0        0       -1       58       26
Fe      -0.09950624      10.90385822      96.63411387       0.00037638      -0.00478229       0.00126520        0        0       -1       58       26
Fe       1.31411914      12.81989661      96.07201767      -0.00190444      -0.00154045       0.00079875        0        0       -1       58       26
Fe      -0.09469415      13.38042025      97.99660201      -0.00249973      -0.00150158       0.00008361        0        0       -1       58       26
Fe       1.31860680      15.29513016      97.43383605      -0.00170417      -0.00233008       0.00043389        0        0       -1       58       26
Fe      -0.09107990      15.85697586      99.36405312      -0.00160644       0.00068265       0.00160303        0        0       -1       58       26
Fe       1.32217606      17.77587855      98.81739866      -0.00009889      -0.00115357       0.00293894        0        0       -1       58       26
Fe      -0.08754464      18.33832979     100.74659963      -0.00161750       0.00043308       0.00115003        0        0       -1       58       26
Fe       1.32575841      20.26308151     100.21220194      -0.00062804      -0.00060068       0.00094247        0        0       -1       58       26
Fe      -0.08448711      20.82316742     102.13415818      -0.00028421      -0.00082398       0.00044078        0        0       -1       58       26
Fe       1.32914913      22.74859103     101.59419801      -0.00088057       0.00049596      -0.00079727        0        0       -1       58       26
Fe      -0.08156533      23.30712621     103.51238546      -0.00118050      -0.00101771      -0.00083633        0        0       -1       58       26
Fe       1.33207532      25.22973852     102.96136404      -0.00077675      -0.00151281      -0.00148377        0        0       -1       58       26
Fe      -0.07923282      25.78801313     104.88144507      -0.00036517      -0.00241465       0.00118708        0        0       -1       58       26
Fe       1.33474209      27.70861610     104.32720845      -0.00070916      -0.00186743      -0.00088751        0        0       -1       58       26
Fe      -0.07680743      28.26633022     106.25025070      -0.00104229      -0.00286507      -0.00159399        0        0       -1       58       26
Fe       1.30451900       1.49778845      92.99119420      -0.00264874      -0.00257058      -0.00069510        0        0       -1       58       26
Fe      -0.10405381       2.07329362      94.94548404      -0.00243453      -0.00045302       0.00028974        0        0       -1       58       26
Fe       1.30853432       4.00151358      94.44777304       0.00016865      -0.00259957      -0.00395911        0        0       -1       58       26
Fe      -0.09976141       4.56908685      96.36983965      -0.00217231      -0.00102425      -0.00308766        0        0       -1       58       26
Fe       1.31329162       6.50536157      95.85984260      -0.00152938      -0.00175810       0.00123801        0        0       -1       58       26
Fe      -0.09566542       7.06362136      97.76525765      -0.00167293      -0.00001646       0.00092640        0        0       -1       58       26
Fe       1.31719679       8.98849654      97.20885148      -0.00013656      -0.00309456       0.00123179        0        0       -1       58       26
Fe      -0.09183999       9.54562634      99.12400186      -0.00116363      -0.00050366      -0.00042987        0        0       -1       58       26
Fe       1.32189629      11.46332947      98.55806769      -0.00297141      -0.00031473       0.00150787        0        0       -1       58       26
Fe      -0.08808340      12.02264298     100.48122583      -0.00183667      -0.00095741      -0.00010172        0        0       -1       58       26
Fe       1.32565876      13.94031977      99.92166136      -0.00195499       0.00029323       0.00174798        0        0       -1       58       26
Fe      -0.08515895      14.49977908     101.84694136      -0.00145120       0.00036716       0.00074269        0        0       -1       58       26
Fe       1.32866656      16.41816330     101.29243300      -0.00143466       0.00070982       0.00140108        0        0       -1       58       26
Fe      -0.08226479      16.97859678     103.21949375      -0.00087240      -0.00061369       0.00040501        0        0       -1       58       26
Fe       1.33177962      18.89925799     102.67362148      -0.00130680       0.00100450      -0.00212024        0        0       -1       58       26
Fe      -0.07936977      19.45993583     104.59876870      -0.00142629      -0.00227423      -0.00151330        0        0       -1       58       26
Fe       1.33464672      21.38318669     104.05628968      -0.00201621      -0.00255400      -0.00250115        0        0       -1       58       26
Fe      -0.07701318      21.94186349     105.97807982      -0.00137858      -0.00141427      -0.00040787        0        0       -1       58       26
Fe       1.33692465      23.86558295     105.43187562      -0.00075399      -0.00261070       0.00197640        0        0       -1       58       26
Fe      -0.07499339      24.42220200     107.35254782      -0.00164676      -0.00210360       0.00237402        0        0       -1       58       26
Fe       1.33917531      26.34495599     106.80279696      -0.00148130      -0.00298674       0.00046469        0        0       -1       58       26
Fe      -0.07317534      26.90041964     108.72478414      -0.00142228      -0.00293534       0.00037806        0        0       -1       58       26
Fe       1.34106833      28.82249979     108.17320991      -0.00083250      -0.00267974       0.00005422        0        0       -1       58       26
Fe       1.31255323       0.16299115      95.50212630       0.00004937      -0.00216225      -0.00188837        0        0       -1       58       26
Fe      -0.09639296       0.72656720      97.43426170      -0.00076756      -0.00111679       0.00012613        0        0       -1       58       26
Fe       1.31748033       2.64220257      96.88504301      -0.00224862       0.00123495       0.00204907        0        0       -1       58       26
Fe      -0.09235591       3.20759825      98.81776320      -0.00070415      -0.00140494       0.00104454        0        0       -1       58       26
Fe       1.32145963       5.13327066      98.29069414      -0.00248924      -0.00247945      -0.00031613        0        0       -1       58       26
Fe      -0.08872827       5.69457129     100.21199474      -0.00220562       0.00049318       0.00124977        0        0       -1       58       26
Fe       1.32460145       7.62231831      99.67719923      -0.00110337      -0.00119647       0.00050534        0        0       -1       58       26
Fe      -0.08561109       8.18056793     101.59323461      -0.00132005      -0.00013409       0.00119873        0        0       -1       58       26
Fe       1.32795376      10.10363457     101.04152644      -0.00024854      -0.00212582       0.00041408        0        0       -1       58       26
Fe      -0.08271912      10.66085770     102.96111635      -0.00114255       0.00088876      -0.00120077        0        0       -1       58       26
Fe       1.33105658      12.58123350     102.40405556      -0.00089341      -0.00043683       0.00048113        0        0       -1       58       26
Fe      -0.08009557      13.13912948     104.32720457      -0.00138987       0.00050437       0.00008284        0        0       -1       58       26
Fe       1.33331600      15.05903841     103.77229023       0.00151333      -0.00038091       0.00008093        0        0       -1       58       26
Fe      -0.07762572      15.61808092     105.69743085      -0.00094947      -0.00225396      -0.00261193        0        0       -1       58       26
Fe       1.33641560      17.53823646     105.14531617      -0.00029705      -0.00108023       0.00065684        0        0       -1       58       26
Fe      -0.07508721      18.09676571     107.07045059      -0.00234552      -0.00132631       0.00087020        0        0       -1       58       26
Fe       1.33904731      20.01880715     106.52295739      -0.00141762      -0.00247139       0.00055261        0        0       -1       58       26
Fe      -0.07322326      20.57565376     108.44698018      -0.00208538      -0.00201603      -0.00058100        0        0       -1       58       26
Fe       1.34092516      22.49877620     107.90020056      -0.00126236      -0.00167096       0.00084708        0        0       -1       58       26
Fe      -0.07191209      23.05380128     109.82292669      -0.00117115      -0.00234430       0.00026942        0        0       -1       58       26
Fe       1.34237997      24.97734931     109.27462231      -0.00056281      -0.00234537       0.00112283        0        0       -1       58       26
Fe      -0.07069628      25.53065848     111.19744028      -0.00127336      -0.00166133      -0.00046966        0        0       -1       58       26
Fe       1.34383354      27.45423090     110.64751133      -0.00145073      -0.00221731       0.00060538        0        0       -1       58       26
Fe      -0.06965738      28.00632617     112.57067767      -0.00173266      -0.00149299      -0.00050135        0        0       -1       58       26
Fe       1.32426724       1.28900915      99.36419241      -0.00231548      -0.00130998       0.00122350        0        0       -1       58       26
Fe      -0.08630250       1.85010010     101.29243714      -0.00081011      -0.00034747       0.00132872        0        0       -1       58       26
Fe       1.32766435       3.77026003     100.74672557      -0.00198729       0.00009695       0.00107669        0        0       -1       58       26
Fe      -0.08339305       4.33176129     102.67327767      -0.00052953      -0.00142755      -0.00086688        0        0       -1       58       26
Fe       1.33056824       6.25534574     102.13379517      -0.00113666      -0.00113469       0.00002576        0        0       -1       58       26
Fe      -0.08053963       6.81467565     104.05556957      -0.00078350      -0.00196135       0.00010054        0        0       -1       58       26
Fe       1.33348945       8.73872274     103.51195833      -0.00160782      -0.00108396      -0.00047688        0        0       -1       58       26
Fe      -0.07823277       9.29604143     105.43204900       0.00023291      -0.00077664      -0.00016871        0        0       -1       58       26
Fe       1.33596742      11.21848170     104.88148003      -0.00135699      -0.00009654       0.00004036        0        0       -1       58       26
Fe      -0.07584273      11.77588591     106.80255044      -0.00124708      -0.00172034       0.00175471        0        0       -1       58       26
Fe       1.33803042      13.69743731     106.25041717      -0.00055280      -0.00200198      -0.00073440        0        0       -1       58       26
Fe      -0.07392927      14.25447360     108.17371501      -0.00059131      -0.00303960      -0.00177728        0        0       -1       58       26
Fe       1.34059835      16.17579534     107.62149509      -0.00227687      -0.00352012      -0.00119802        0        0       -1       58       26
Fe      -0.07221335      16.73148898     109.54549748      -0.00052595      -0.00338351       0.00029284        0        0       -1       58       26
Fe       1.34252673      18.65324931     108.99507203      -0.00222886      -0.00284992      -0.00006172        0        0       -1       58       26
Fe      -0.07093276      19.20757970     110.91960248      -0.00060243      -0.00282172      -0.00063251        0        0       -1       58       26
Fe       1.34385729      21.13032354     110.37069744      -0.00207188      -0.00193170      -0.00000860        0        0       -1       58       26
Fe      -0.07002423      21.68306084     112.29442302      -0.00054836      -0.00035606       0.00199656        0        0       -1       58       26
Fe       1.34468828      23.60683781     111.74608576      -0.00098771      -0.00149063       0.00086921        0        0       -1       58       26
Fe      -0.06922138      24.15846930     113.66960040      -0.00123315      -0.00008432       0.00028532        0        0       -1       58       26
Fe       1.34545916      26.08250804     113.12062670      -0.00084922      -0.00120727      -0.00145829        0        0       -1       58       26
Fe      -0.06891129      26.63351306     115.04342553      -0.00095666      -0.00009549       0.00139319        0        0       -1       58       26
Fe       1.34601421      28.55751944     114.49405979      -0.00125061      -0.00046175      -0.00055818        0        0       -1       58       26
Fe       1.32965279      -0.06849992     101.84701934      -0.00075479       0.00115569       0.00099064        0        0       -1       58       26
Fe      -0.08112739       0.49147160     103.77185484      -0.00149301      -0.00124364       0.00006304        0        0       -1       58       26
Fe       1.33268520       2.41098813     103.21950116      -0.00080089      -0.00186222       0.00037206        0        0       -1       58       26
Fe      -0.07868715       2.97010675     105.14517423      -0.00079984      -0.00089150      -0.00053776        0        0       -1       58       26
Fe       1.33546433       4.89154059     104.59868787      -0.00041572      -0.00099932      -0.00117389        0        0       -1       58       26
Fe      -0.07611241       5.44966436     106.52318190      -0.00135930      -0.00050754      -0.00077188        0        0       -1       58       26
Fe       1.33807459       7.37262503     105.97767374      -0.00161925       0.00012223       0.00133571        0        0       -1       58       26
Fe      -0.07408623       7.92977189     107.90007182      -0.00168038      -0.00097686       0.00145383        0        0       -1       58       26
Fe       1.34001740       9.85322262     107.35300096      -0.00143689      -0.00187778       0.00036540        0        0       -1       58       26
Fe      -0.07243048      10.40910015     109.27483374      -0.00206713      -0.00307998       0.00038020        0        0       -1       58       26
Fe       1.34163890      12.33199426     108.72466272      -0.00050943      -0.00240218       0.00083228        0        0       -1       58       26
Fe      -0.07116533      12.88621957     110.64743301      -0.00127707      -0.00225687       0.00141999        0        0       -1       58       26
Fe       1.34343676      14.80918348     110.09700903      -0.00230460      -0.00327639      -0.00133720        0        0       -1       58       26
Fe      16.91001416      15.36190980     112.02055615      -0.00188859      -0.00232162      -0.00149754       -1        0       -1       58       26
Fe       1.34454497      17.28470348     111.46963570      -0.00121097      -0.00184312      -0.00071864        0        0       -1       58       26
Fe      -0.06928902      17.83672747     113.39383759      -0.00125697      -0.00090467       0.00052247        0        0       -1       58       26
Fe       1.34531820      19.75984213     112.84404401      -0.00012704      -0.00093455       0.00010408        0        0       -1       58       26
Fe      -0.06875073      20.31147208     114.76860083      -0.00133906      -0.00120189      -0.00189856        0        0       -1       58       26
Fe       1.34593236      22.23462676     114.21864755      -0.00066616       0.00044648       0.00040257        0        0       -1       58       26
Fe      -0.06855557      22.78603924     116.14278738      -0.00171353      -0.00119393       0.00105127        0        0       -1       58       26
Fe       1.34633131      24.70963881     115.59333249      -0.00161248      -0.00023055       0.00011115        0        0       -1       58       26
Fe       1.33728964       1.04997329     105.69657117      -0.00061765      -0.00197259      -0.00023549        0        0       -1       58       26
Fe      -0.07470543       1.60710039     107.62096884      -0.00057211      -0.00274290      -0.00073494        0        0       -1       58       26
Fe       1.33995073       3.52781506     107.06985962      -0.00289371      -0.00016691       0.00226086        0        0       -1       58       26
Fe      -0.07265541       4.08452526     108.99444288      -0.00222392      -0.00293483       0.00139868        0        0       -1       58       26
Fe       1.34183087       6.00686105     108.44706028      -0.00273156      -0.00165656      -0.00128619        0        0       -1       58       26
Fe      -0.07132894       6.56208236     110.37063398      -0.00179319      -0.00257505       0.00055497        0        0       -1       58       26
Fe       1.34289337       8.48551033     109.82317033      -0.00089917      -0.00249116       0.00005115        0        0       -1       58       26
Fe      -0.07050172       9.03903703     111.74659277      -0.00051109      -0.00228423      -0.00051454        0        0       -1       58       26
Fe       1.34407542      10.96271329     111.19748166      -0.00089002      -0.00210566      -0.00008528        0        0       -1       58       26
Fe      -0.06969412      11.51467878     113.12042065      -0.00054525      -0.00191258       0.00024184        0        0       -1       58       26
Fe       1.34517096      13.43854049     112.57077713      -0.00119595      -0.00275597      -0.00148016        0        0       -1       58       26
Fe      -0.06900929      13.98961535     114.49401175      -0.00099181      -0.00175012      -0.00157796        0        0       -1       58       26
Fe       1.34589308      15.91338421     113.94396992      -0.00071322      -0.00175972      -0.00126580        0        0       -1       58       26
Fe      -0.06862782      16.46424659     115.86722391      -0.00139760      -0.00189784      -0.00009121        0        0       -1       58       26
Fe       1.34657129      18.38796167     115.31783073      -0.00221018      -0.00136707      -0.00051046        0        0       -1       58       26
Fe      -0.07148107       0.24037184     110.09646556      -0.00225532      -0.00221119       0.00080612        0        0       -1       58       26
Fe       1.34269662       2.16263708     109.54507518      -0.00058590      -0.00283716       0.00000258        0        0       -1       58       26
Fe      -0.07040959       2.71598388     111.46923346      -0.00133845      -0.00157952      -0.00010384        0        0       -1       58       26
Fe       1.34389025       4.63889976     110.91917649      -0.00006206      -0.00238860      -0.00032114        0        0       -1       58       26
Fe      -0.06960567       5.19129972     112.84361721      -0.00112361      -0.00053512       0.00079647        0        0       -1       58       26
Fe       1.34469591       7.11506971     112.29475755       0.00042822      -0.00160155       0.00035105        0        0       -1       58       26
Fe      -0.06903225       7.66662488     114.21890711      -0.00119904      -0.00064973      -0.00106373        0        0       -1       58       26
Fe       1.34558472       9.59079982     113.67024321      -0.00101385      -0.00180256      -0.00190714        0        0       -1       58       26
Fe      -0.06872506      10.14155477     115.59376189      -0.00124448      -0.00050237      -0.00106694        0        0       -1       58       26
Fe       1.34606996      12.06554551     115.04358503      -0.00091128      -0.00066617       0.00051737        0        0       -1       58       26
Fe       1.34494673       0.79319263     112.02030364      -0.00147883      -0.00229342      -0.00163612        0        0       -1       58       26
Fe      -0.06905281       1.34458807     113.94388316      -0.00162206      -0.00055442      -0.00079318        0        0       -1       58       26
Fe       1.34573656       3.26793655     113.39338293      -0.00188321      -0.00023855       0.00133604        0        0       -1       58       26
Fe      -0.06867066       3.81934098     115.31763767      -0.00142274      -0.00095808      -0.00014723        0        0       -1       58       26
Fe       1.34620748       5.74282544     114.76808564      -0.00176517      -0.00019486      -0.00119677        0        0       -1       58       26
Fe       1.34651610       8.21764821     116.14285203      -0.00210356      -0.00077286       0.00065791        0        0       -1       58       26
Fe       1.34625014       1.89568461     115.86750173      -0.00110450      -0.00130233      -0.00044733        0        0       -1       58       26
Fe      -0.13164559       6.21634495      87.76456607      -0.00112115      -0.00053723       0.00202168        0        0       -1       54       26
Fe      -0.13055290       8.57778340      88.77753704      -0.00031385      -0.00029303       0.00266570        0        0       -1       58       26
Fe       1.28227036      10.60692144      88.48676072       0.00133948      -0.00021939       0.00023538        0        0       -1       53       26
Fe      -0.12279430      11.12367969      90.34097845      -0.00210777       0.00106779      -0.00045266        0        0       -1       53       26
Fe       1.28986913      13.03886007      89.74948295       0.00122855      -0.00142111       0.00064488        0        0       -1       55       26
Fe      -0.11700352      13.61345006      91.63382585       0.00029701      -0.00075340       0.00048311        0        0       -1       56       26
Fe       1.29698974      15.47917993      90.99284002      -0.00314909       0.00004456       0.00001279        0        0       -1       57       26
Fe      -0.11084559      16.06611105      92.99016812      -0.00027913      -0.00225184      -0.00092657        0        0       -1       58       26
Fe       1.30173036      17.99311935      92.52355247      -0.00147659      -0.00026416       0.00119133        0        0       -1       58       26
Fe      -0.10655519      18.56935736      94.44607118      -0.00124085      -0.00134102       0.00220032        0        0       -1       58       26
Fe       1.30654366      20.51431398      93.96630752      -0.00022813      -0.00146408      -0.00154975        0        0       -1       58       26
Fe      -0.10176244      21.07332932      95.86042179      -0.00183436      -0.00068954      -0.00014486        0        0       -1       58       26
Fe       1.31157468      22.99812202      95.29817336      -0.00183960       0.00079641       0.00064525        0        0       -1       58       26
Fe      -0.09717011      23.55604342      97.20894354      -0.00179369      -0.00076675       0.00026782        0        0       -1       58       26
Fe       1.31603421      25.47091074      96.63325615      -0.00090185      -0.00025617       0.00260013        0        0       -1       58       26
Fe      -0.09308957      26.03182579      98.55745314      -0.00181379      -0.00243460       0.00157315        0        0       -1       58       26
Fe       1.32041254      27.94874599      97.99665998      -0.00194153      -0.00121213      -0.00162405        0        0       -1       58       26
Fe      -0.08969137      28.50859937      99.92152891      -0.00101460      -0.00110875       0.00119002        0        0       -1       58       26
Fe      -0.13186773      12.51843950      87.78689999       0.00040713       0.00006406      -0.00096915        0        0       -1       53       26
Fe      14.08120905      54.39688627       0.95685000      -0.00121990      -0.00218148      -0.00066855       -1       -1        0       58       26
Fe      -0.13020125      14.86131744      88.83577774       0.00095956      -0.00042909       0.00311373        0        0       -1       57       26
Fe       1.28435162      16.86701991      88.67607137       0.00039657       0.00024015      -0.00071349        0        0       -1       57       26
Fe      -0.12114177      17.40747523      90.60100950      -0.00199897      -0.00048233       0.00081605        0        0       -1       56       26
Fe       1.29125732      19.38201624      90.24284271      -0.00100670      -0.00329836      -0.00079051        0        0       -1       57       26
Fe      -0.11599143      19.95241927      92.09147823      -0.00063336      -0.00075794       0.00030725        0        0       -1       58       26
Fe       1.29693091      21.88902526      91.50319807       0.00198181       0.00054597       0.00064065        0        0       -1       56       26
Fe      -0.11076132      22.44104154      93.39459346       0.00008423       0.00055331      -0.00113211        0        0       -1       58       26
Fe       1.30289020      24.33970295      92.77096362      -0.00201739      -0.00041322      -0.00193146        0        0       -1       58       26