960
Lattice="16.98 0.0 0.0 0.0 12.65614475 0.0 0.0 0.0 51.27824862" Properties=species:S:1:pos:R:3:force:R:3:map_shift:I:3:n_neighb:I:1:Z:I:1 nneightol=1.2 virial="-43.70609343 -0.003982 -0.06028355 -0.003982 -76.34026073 -0.10078141 -0.06028355 -0.10078141 9.64182803" energy=-3822.08011277 cutoff=5.3 pbc="T T T"
Fe       1.28709734       0.65533734      37.90646234       0.00010616       0.00033400      -0.00246932        0        0       -1       54       26 
Fe      -0.12738936       2.62293244      39.27131125      -0.00005941       0.00014743      -0.00021949        0        0       -1       58       26 
Fe       1.28758727       4.62975777      39.11431207       0.00021299      -0.00045194      -0.00146971        0        0       -1       53       26 
Fe      -0.12693137       5.15351530      40.95850699       0.00000795      -0.00016170       0.00280575        0        0       -1       53       26 
Fe       1.28808664       0.73247558      40.25861575       0.00003909       0.00065994       0.00359680        0        0       -1       54       26 
Fe      -0.12666517       1.37916740      42.11056520       0.00005051      -0.00313520      -0.00408214        0        0       -1       55       26 
Fe       1.28823004       3.21985654      41.38562363      -0.00004913       0.00156199      -0.00081563        0        0       -1       56       26 
Fe      -0.12647916       3.88235140      43.34152184       0.00009638       0.00070728      -0.00018006        0        0       -1       58       26 
Fe       1.28842101       5.80781259      42.79066023      -0.00011312      -0.00160186      -0.00294411        0        0       -1       57       26 
Fe       1.28862902       2.00231938      44.00411543      -0.00014646       0.00116836       0.00512040        0        0       -1       58       26 
Fe      -0.12629370       0.10843402      44.66137607      -0.00000524      -0.00048888       0.00356311        0        0       -1       58       26 
Fe      -0.12610854       2.63445264      45.90251391      -0.00004259      -0.00284571      -0.00386673        0        0       -1       58       26 
Fe       1.28880593       4.52580325      45.25874297      -0.00005290       0.00177502      -0.00098537        0        0       -1       58       26 
Fe      -0.12592798       5.16263256      47.16452438      -0.00019272       0.00131182       0.00015172        0        0       -1       58       26 
Fe       1.28897522       0.73851266      46.54734488      -0.00003416      -0.00129414      -0.00302091        0        0       -1       58       26 
Fe      -0.12579073       1.36996741      48.43912986      -0.00010349       0.00129443       0.00302914        0        0       -1       58       26 
Fe       1.28913315       3.26700312      47.80037400      -0.00004887       0.00027203       0.00477741        0        0       -1       58       26 
Fe      -0.12566317       3.89998962      49.69881480      -0.00001439      -0.00109150      -0.00457723        0        0       -1       58       26 
Fe       1.28927587       5.79747721      49.06560224      -0.00006591      -0.00001020      -0.00054639        0        0       -1       58       26 
Fe       1.28941383       2.00248070      50.33441676      -0.00020176      -0.00237986      -0.00230968        0        0       -1       58       26 
Fe      -0.12554486       0.10326867      50.96498365      -0.00001516       0.00260907      -0.00058875        0        0       -1       58       26 
Fe       1.28701387       3.02156624      36.89437241       0.00017982      -0.00038799       0.00022301        0        0       -1       57       26 
Fe       2.70217146       5.00214476      37.24755836      -0.00036706       0.00018915       0.00125414        0        0       -1       53       26 
Fe       1.28676278       5.59906914      35.40187781       0.00036998       0.00035922      -0.00109763        0        0       -1       55       26 
Fe       2.70186866       1.18020844      35.99706940      -0.00019899      -0.00021368       0.00237294        0        0       -1       55       26 
Fe       1.28657795       1.82423289      34.16017870       0.00010090       0.00125493      -0.00147326        0        0       -1       56       26 
Fe       2.70166025       3.67813175      34.87990425      -0.00005296       0.00034031      -0.00093967        0        0       -1       56       26 
Fe       1.28642267       4.32864976      32.94310043      -0.00005258       0.00017782       0.00103013        0        0       -1       58       26 
Fe       2.70150493      -0.08790759      33.52619642       0.00005628      -0.00085999       0.00129806        0        0       -1       58       26 
Fe       2.70132602       2.44607244      32.27544462       0.00022987      -0.00028506      -0.00014006        0        0       -1       58       26 
Fe       1.28628028       0.54492685      31.64068457      -0.00012214       0.00150884      -0.00179831        0        0       -1       58       26 
Fe       1.28613204       3.07638777      30.38313331      -0.00002891      -0.00057259       0.00128219        0        0       -1       58       26 
Fe       2.70117904       4.96823063      31.02974332       0.00021642       0.00069807      -0.00047179        0        0       -1       58       26 
Fe       1.28599121       5.60417772      29.12553085       0.00014040       0.00059338       0.00056761        0        0       -1       58       26 
Fe       2.70105192       1.17733522      29.74821046       0.00015086      -0.00050933       0.00212807        0        0       -1       58       26 
Fe       1.28586907       1.81024461      27.85341998       0.00033135       0.00055963      -0.00164746        0        0       -1       58       26 
Fe       2.70094665       3.70845461      28.48788694      -0.00003051       0.00038356      -0.00144054        0        0       -1       58       26 
Fe       1.28577694       4.34137632      26.59145475       0.00038702      -0.00000522       0.00031917        0        0       -1       58       26 
Fe       2.70085932      -0.08916482      27.22513656      -0.00014123       0.00010930      -0.00097489        0        0       -1       58       26 
Fe       2.70078415       2.44355874      25.95683371      -0.00008896      -0.00043733       0.00128997        0        0       -1       58       26 
Fe      -0.12648788      -0.00609044      12.26710113      -0.00009936      -0.00033795       0.00032486        0        0        0       54       26 
Fe       1.28765916       4.35353095      13.63172662      -0.00007000       0.00018570       0.00027478        0        0        0       58       26 
Fe       2.70263454       2.34665946      13.47530814       0.00028011       0.00064455      -0.00026685        0        0        0       53       26 
Fe       1.28693137       1.82280817      15.31957748      -0.00029418       0.00020293       0.00075992        0        0        0       53       26 
Fe       2.70183995      -0.08434789      14.61961085       0.00024555       0.00020488       0.00070200        0        0        0       54       26 
Fe       1.28650470       5.59742369      16.47140103       0.00005048       0.00072210      -0.00142480        0        0        0       55       26 
Fe       2.70164283       3.75642498      15.74649081       0.00031004       0.00049425      -0.00046365        0        0        0       56       26 
Fe       1.28623891       3.09418545      17.70239350       0.00030930      -0.00052947       0.00101789        0        0        0       58       26 
Fe       2.70139013       1.16866255      17.15155175       0.00033156       0.00119708      -0.00052294        0        0        0       57       26 
Fe       2.70116715       4.97421480      18.36530761      -0.00006415      -0.00038119       0.00161401        0        0        0       58       26 
Fe       1.28603301       0.54015861      19.02258655       0.00049753       0.00023342      -0.00008142        0        0        0       58       26 
Fe       1.28584401       4.34244520      20.26345960       0.00063771      -0.00007378      -0.00168321        0        0        0       58       26 
Fe       2.70097314       2.45071766      19.61977608      -0.00001861       0.00098972      -0.00138559        0        0        0       58       26 
Fe       1.28576989       1.81417980      21.52552190       0.00024967      -0.00133457       0.00105244        0        0        0       58       26 
Fe       2.70083132      -0.08976376      20.90820571       0.00011806       0.00040636       0.00099461        0        0        0       58       26 
Fe       1.28573272       5.60678867      22.80040706       0.00003005       0.00012013      -0.00111975        0        0        0       58       26 
Fe       2.70071850       3.70983585      22.16160470       0.00039754      -0.00015967       0.00125982        0        0        0       58       26 
Fe       1.28571889       3.07680676      24.05965690       0.00003740       0.00008559      -0.00121423        0        0        0       58       26 
Fe       2.70067867       1.17933868      23.42667605       0.00047948      -0.00008784      -0.00143457        0        0        0       58       26 
Fe       2.70070903       4.97434151      24.69527299       0.00024375      -0.00022505       0.00056572        0        0        0       58       26 
Fe       1.28572476       0.54514856      25.32587475       0.00027505      -0.00079136       0.00096689        0        0        0       58       26 
Fe      -0.12637367       3.95599503      11.25509910      -0.00013331      -0.00103258      -0.00000549        0        0        0       57       26 
Fe       1.28844162       1.97548714      11.60851633      -0.00019927      -0.00048417      -0.00062451        0        0        0       53       26 
Fe      -0.12601856       1.37833848       9.76258789      -0.00027617       0.00031559       0.00081948        0        0        0       55       26 
Fe       1.28889610       5.79736077      10.35796906      -0.00015549      -0.00087099      -0.00039481        0        0        0       55       26 
Fe      -0.12573186       5.15290004       8.52081364      -0.00038456       0.00006309       0.00039624        0        0        0       56       26 
Fe       1.28916563       3.29924840       9.24056448      -0.00016174      -0.00121180       0.00030208        0        0        0       56       26 
Fe      -0.12555262       2.64826144       7.30390116      -0.00034649      -0.00053839       0.00082744        0        0        0       58       26 
Fe       1.28932873       0.73699626       7.88713637      -0.00013535      -0.00069134      -0.00051026        0        0        0       58       26 
Fe       1.28950368       4.53062864       6.63627133      -0.00025208       0.00079259      -0.00045469        0        0        0       58       26 
Fe      -0.12543779       0.10355220       6.00144481      -0.00030632      -0.00114598       0.00009823        0        0        0       58       26 
Fe      -0.12537473       3.90001035       4.74407579      -0.00017699      -0.00077092       0.00013381        0        0        0       58       26 
Fe       1.28960996       2.00811046       5.39068469      -0.00033840       0.00060357      -0.00165934        0        0        0       58       26 
Fe      -0.12536110       1.37195426       3.48634111      -0.00007164       0.00024708       0.00158672        0        0        0       58       26 
Fe       1.28966103       5.79886614       4.10915855      -0.00041502       0.00114865       0.00118346        0        0        0       58       26 
Fe      -0.12538134       5.16609293       2.21431999      -0.00008831      -0.00215929      -0.00239730        0        0        0       58       26 
Fe       1.28964909       3.26761868       2.84869684      -0.00032689       0.00154030      -0.00108707        0        0        0       58       26 
Fe      -0.12544696       2.63488527       0.95221211      -0.00005144       0.00214123       0.00126282        0        0        0       58       26 
Fe       1.28960609       0.73738721       1.58596577      -0.00032506      -0.00007361      -0.00098287        0        0        0       58       26 
Fe       1.28952135       4.53300684       0.31741934      -0.00024976      -0.00072223       0.00481966        0        0        0       58       26 
Fe       1.28709734       6.98340971      37.90646234       0.00010616       0.00033400      -0.00246932        0       -1       -1       54       26 
Fe      -0.12738936       8.95100481      39.27131125      -0.00005941       0.00014743      -0.00021949        0       -1       -1       58       26 
Fe       1.28758727      10.95783014      39.11431207       0.00021299      -0.00045194      -0.00146971        0       -1       -1       53       26 
Fe      -0.12693137      11.48158768      40.95850699       0.00000795      -0.00016170       0.00280575        0       -1       -1       53       26 
Fe       1.28808664       7.06054795      40.25861575       0.00003909       0.00065994       0.00359680        0       -1       -1       54       26 
Fe      -0.12666517       7.70723978      42.11056520       0.00005051      -0.00313520      -0.00408214        0       -1       -1       55       26 
Fe       1.28823004       9.54792892      41.38562363      -0.00004913       0.00156199      -0.00081563        0       -1       -1       56       26 
Fe      -0.12647916      10.21042377      43.34152184       0.00009638       0.00070728      -0.00018006        0       -1       -1       58       26 
Fe       1.28842101      12.13588497      42.79066023      -0.00011312      -0.00160186      -0.00294411        0       -1       -1       57       26 
Fe       1.28862902       8.33039175      44.00411543      -0.00014646       0.00116836       0.00512040        0       -1       -1       58       26 
Fe      -0.12629370       6.43650640      44.66137607      -0.00000524      -0.00048888       0.00356311        0       -1       -1       58       26 
Fe      -0.12610854       8.96252501      45.90251391      -0.00004259      -0.00284571      -0.00386673        0       -1       -1       58       26 
Fe       1.28880593      10.85387563      45.25874297      -0.00005290       0.00177502      -0.00098537        0       -1       -1       58       26 
Fe      -0.12592798      11.49070493      47.16452438      -0.00019272       0.00131182       0.00015172        0       -1       -1       58       26 
Fe       1.28897522       7.06658503      46.54734488      -0.00003416      -0.00129414      -0.00302091        0       -1       -1       58       26 
Fe      -0.12579073       7.69803978      48.43912986      -0.00010349       0.00129443       0.00302914        0       -1       -1       58       26 
Fe       1.28913315       9.59507549      47.80037400      -0.00004887       0.00027203       0.00477741        0       -1       -1       58       26 
Fe      -0.12566317      10.22806199      49.69881480      -0.00001439      -0.00109150      -0.00457723        0       -1       -1       58       26 
Fe       1.28927587      12.12554958      49.06560224      -0.00006591      -0.00001020      -0.00054639        0       -1       -1       58       26 
Fe       1.28941383       8.33055307      50.33441676      -0.00020176      -0.00237986      -0.00230968        0       -1       -1       58       26 
Fe      -0.12554486       6.43134104      50.96498365      -0.00001516       0.00260907      -0.00058875        0       -1       -1       58       26 
Fe       1.28701387       9.34963862      36.89437241       0.00017982      -0.00038799       0.00022301        0       -1       -1       57       26 
Fe       2.70217146      11.33021714      37.24755836      -0.00036706       0.00018915       0.00125414        0       -1       -1       53       26 
Fe       1.28676278      11.92714152      35.40187781       0.00036998       0.00035922      -0.00109763        0       -1       -1       55       26 
Fe       2.70186866       7.50828081      35.99706940      -0.00019899      -0.00021368       0.00237294        0       -1       -1       55       26 
Fe       1.28657795       8.15230527      34.16017870       0.00010090       0.00125493      -0.00147326        0       -1       -1       56       26 
Fe       2.70166025      10.00620413      34.87990425      -0.00005296       0.00034031      -0.00093967        0       -1       -1       56       26 
Fe       1.28642267      10.65672213      32.94310043      -0.00005258       0.00017782       0.00103013        0       -1       -1       58       26 
Fe       2.70150493       6.24016478      33.52619642       0.00005628      -0.00085999       0.00129806        0        0       -1       58       26 
Fe       2.70132602       8.77414482      32.27544462       0.00022987      -0.00028506      -0.00014006        0       -1       -1       58       26 
Fe       1.28628028       6.87299923      31.64068457      -0.00012214       0.00150884      -0.00179831        0       -1       -1       58       26 
Fe       1.28613204       9.40446014      30.38313331      -0.00002891      -0.00057259       0.00128219        0       -1       -1       58       26 
Fe       2.70117904      11.29630300      31.02974332       0.00021642       0.00069807      -0.00047179        0       -1       -1       58       26 
Fe       1.28599121      11.93225010      29.12553085       0.00014040       0.00059338       0.00056761        0       -1       -1       58       26 
Fe       2.70105192       7.50540760      29.74821046       0.00015086      -0.00050933       0.00212807        0       -1       -1       58       26 
Fe       1.28586907       8.13831699      27.85341998       0.00033135       0.00055963      -0.00164746        0       -1       -1       58       26 
Fe       2.70094665      10.03652699      28.48788694      -0.00003051       0.00038356      -0.00144054        0       -1       -1       58       26 
Fe       1.28577694      10.66944869      26.59145475       0.00038702      -0.00000522       0.00031917        0       -1       -1       58       26 
Fe       2.70085932       6.23890755      27.22513656      -0.00014123       0.00010930      -0.00097489        0        0       -1       58       26 
Fe       2.70078415       8.77163112      25.95683371      -0.00008896      -0.00043733       0.00128997        0       -1       -1       58       26 
Fe      -0.12648788       6.32198193      12.26710113      -0.00009936      -0.00033795       0.00032486        0        0        0       54       26 
Fe       1.28765916      10.68160332      13.63172662      -0.00007000       0.00018570       0.00027478        0       -1        0       58       26 
Fe       2.70263454       8.67473183      13.47530814       0.00028011       0.00064455      -0.00026685        0       -1        0       53       26 
Fe       1.28693137       8.15088054      15.31957748      -0.00029418       0.00020293       0.00075992        0       -1        0       53       26 
Fe       2.70183995       6.24372448      14.61961085       0.00024555       0.00020488       0.00070200        0        0        0       54       26 
Fe       1.28650470      11.92549606      16.47140103       0.00005048       0.00072210      -0.00142480        0       -1        0       55       26 
Fe       2.70164283      10.08449736      15.74649081       0.00031004       0.00049425      -0.00046365        0       -1        0       56       26 
Fe       1.28623891       9.42225782      17.70239350       0.00030930      -0.00052947       0.00101789        0       -1        0       58       26 
Fe       2.70139013       7.49673493      17.15155175       0.00033156       0.00119708      -0.00052294        0       -1        0       57       26 
Fe       2.70116715      11.30228718      18.36530761      -0.00006415      -0.00038119       0.00161401        0       -1        0       58       26 
Fe       1.28603301       6.86823099      19.02258655       0.00049753       0.00023341      -0.00008142        0       -1        0       58       26 
Fe       1.28584402      10.67051757      20.26345960       0.00063771      -0.00007378      -0.00168321        0       -1        0       58       26 
Fe       2.70097314       8.77879003      19.61977608      -0.00001861       0.00098972      -0.00138559        0       -1        0       58       26 
Fe       1.28576989       8.14225218      21.52552190       0.00024967      -0.00133457       0.00105244        0       -1        0       58       26 
Fe       2.70083132       6.23830862      20.90820571       0.00011806       0.00040636       0.00099461        0        0        0       58       26 
Fe       1.28573272      11.93486104      22.80040706       0.00003005       0.00012013      -0.00111975        0       -1        0       58       26 
Fe       2.70071850      10.03790822      22.16160470       0.00039754      -0.00015967       0.00125982        0       -1        0       58       26 
Fe       1.28571889       9.40487914      24.05965690       0.00003740       0.00008559      -0.00121423        0       -1        0       58       26 
Fe       2.70067867       7.50741106      23.42667605       0.00047948      -0.00008784      -0.00143457        0       -1        0       58       26 
Fe       2.70070903      11.30241388      24.69527299       0.00024375      -0.00022505       0.00056572        0       -1        0       58       26 
Fe       1.28572476       6.87322094      25.32587475       0.00027505      -0.00079136       0.00096689        0       -1        0       58       26 
Fe      -0.12637367      10.28406740      11.25509910      -0.00013331      -0.00103258      -0.00000549        0       -1        0       57       26 
Fe       1.28844162       8.30355952      11.60851633      -0.00019927      -0.00048417      -0.00062451        0       -1        0       53       26 
Fe      -0.12601856       7.70641086       9.76258789      -0.00027617       0.00031559       0.00081948        0       -1        0       55       26 
Fe       1.28889610      12.12543315      10.35796906      -0.00015549      -0.00087099      -0.00039481        0       -1        0       55       26 
Fe      -0.12573186      11.48097242       8.52081364      -0.00038456       0.00006309       0.00039624        0       -1        0       56       26 
Fe       1.28916563       9.62732077       9.24056448      -0.00016174      -0.00121180       0.00030208        0       -1        0       56       26 
Fe      -0.12555262       8.97633381       7.30390116      -0.00034649      -0.00053839       0.00082744        0       -1        0       58       26 
Fe       1.28932873       7.06506864       7.88713637      -0.00013535      -0.00069134      -0.00051026        0       -1        0       58       26 
Fe       1.28950368      10.85870101       6.63627133      -0.00025208       0.00079259      -0.00045469        0       -1        0       58       26 
Fe      -0.12543779       6.43162458       6.00144481      -0.00030632      -0.00114598       0.00009823        0       -1        0       58       26 
Fe      -0.12537473      10.22808273       4.74407579      -0.00017699      -0.00077092       0.00013381        0       -1        0       58       26 
Fe       1.28960996       8.33618284       5.39068469      -0.00033840       0.00060357      -0.00165934        0       -1        0       58       26 
Fe      -0.12536110       7.70002664       3.48634111      -0.00007164       0.00024708       0.00158672        0       -1        0       58       26 
Fe       1.28966103      12.12693851       4.10915855      -0.00041502       0.00114865       0.00118346        0       -1        0       58       26 
Fe      -0.12538134      11.49416530       2.21431999      -0.00008831      -0.00215929      -0.00239730        0       -1        0       58       26 
Fe       1.28964909       9.59569105       2.84869684      -0.00032689       0.00154030      -0.00108707        0       -1        0       58       26 
Fe      -0.12544696       8.96295765       0.95221211      -0.00005144       0.00214123       0.00126282        0       -1        0       58       26 
Fe       1.28960609       7.06545958       1.58596577      -0.00032506      -0.00007361      -0.00098287        0       -1        0       58       26 
Fe       1.28952135      10.86107922       0.31741934      -0.00024976      -0.00072223       0.00481966        0       -1        0       58       26 
Fe       4.11709734       0.65533734      37.90646234       0.00010616       0.00033400      -0.00246932        0        0       -1       54       26 
Fe       2.70261064       2.62293244      39.27131125      -0.00005941       0.00014743      -0.00021949        0        0       -1       58       26 
Fe       4.11758727       4.62975777      39.11431207       0.00021299      -0.00045194      -0.00146971        0        0       -1       53       26 
Fe       2.70306863       5.15351530      40.95850699       0.00000795      -0.00016170       0.00280575        0        0       -1       53       26 
Fe       4.11808664       0.73247558      40.25861575       0.00003909       0.00065994       0.00359680        0        0       -1       54       26 
Fe       2.70333483       1.37916740      42.11056520       0.00005051      -0.00313520      -0.00408214        0        0       -1       55       26 
Fe       4.11823004       3.21985654      41.38562363      -0.00004913       0.00156199      -0.00081563        0        0       -1       56       26 
Fe       2.70352084       3.88235140      43.34152184       0.00009638       0.00070728      -0.00018006        0        0       -1       58       26 
Fe       4.11842101       5.80781259      42.79066023      -0.00011312      -0.00160186      -0.00294411        0        0       -1       57       26 
Fe       4.11862902       2.00231938      44.00411543      -0.00014646       0.00116836       0.00512040        0        0       -1       58       26 
Fe       2.70370630       0.10843402      44.66137607      -0.00000524      -0.00048888       0.00356311        0        0       -1       58       26 
Fe       2.70389146       2.63445264      45.90251391      -0.00004259      -0.00284571      -0.00386673        0        0       -1       58       26 
Fe       4.11880593       4.52580325      45.25874297      -0.00005290       0.00177502      -0.00098537        0        0       -1       58       26 
Fe       2.70407202       5.16263256      47.16452438      -0.00019272       0.00131182       0.00015172        0        0       -1       58       26 
Fe       4.11897522       0.73851266      46.54734488      -0.00003416      -0.00129414      -0.00302091        0        0       -1       58       26 
Fe       2.70420927       1.36996741      48.43912986      -0.00010349       0.00129443       0.00302914        0        0       -1       58       26 
Fe       4.11913315       3.26700312      47.80037400      -0.00004887       0.00027203       0.00477741        0        0       -1       58       26 
Fe       2.70433683       3.89998962      49.69881480      -0.00001439      -0.00109150      -0.00457723        0        0       -1       58       26 
Fe       4.11927587       5.79747721      49.06560224      -0.00006591      -0.00001020      -0.00054639        0        0       -1       58       26 
Fe       4.11941383       2.00248070      50.33441676      -0.00020176      -0.00237986      -0.00230968        0        0       -1       58       26 
Fe       2.70445514       0.10326867      50.96498365      -0.00001516       0.00260907      -0.00058875        0        0       -1       58       26 
Fe       4.11701387       3.02156624      36.89437241       0.00017982      -0.00038799       0.00022301        0        0       -1       57       26 
Fe       5.53217146       5.00214476      37.24755836      -0.00036706       0.00018915       0.00125414        0        0       -1       53       26 
Fe       4.11676278       5.59906914      35.40187781       0.00036998       0.00035922      -0.00109763        0        0       -1       55       26 
Fe       5.53186866       1.18020844      35.99706940      -0.00019899      -0.00021368       0.00237294        0        0       -1       55       26 
Fe       4.11657795       1.82423289      34.16017870       0.00010090       0.00125493      -0.00147326        0        0       -1       56       26 
Fe       5.53166025       3.67813175      34.87990425      -0.00005296       0.00034031      -0.00093967        0        0       -1       56       26 
Fe       4.11642267       4.32864976      32.94310043      -0.00005258       0.00017782       0.00103013        0        0       -1       58       26 
Fe       5.53150493      -0.08790759      33.52619642       0.00005628      -0.00085999       0.00129806        0        0       -1       58       26 
Fe       5.53132602       2.44607244      32.27544462       0.00022987      -0.00028506      -0.00014006        0        0       -1       58       26 
Fe       4.11628028       0.54492685      31.64068457      -0.00012214       0.00150884      -0.00179831        0        0       -1       58       26 
Fe       4.11613204       3.07638777      30.38313331      -0.00002891      -0.00057259       0.00128219        0        0       -1       58       26 
Fe       5.53117904       4.96823063      31.02974332       0.00021642       0.00069807      -0.00047179        0        0       -1       58       26 
Fe       4.11599121       5.60417772      29.12553085       0.00014040       0.00059338       0.00056761        0        0       -1       58       26 
Fe       5.53105192       1.17733522      29.74821046       0.00015086      -0.00050933       0.00212807        0        0       -1       58       26 
Fe       4.11586907       1.81024461      27.85341998       0.00033135       0.00055963      -0.00164746        0        0       -1       58       26 