3120
Lattice="16.98 0.0 0.0 0.0 33.00318772 0.0 0.0 0.0 63.71951143" Properties=species:S:1:pos:R:3:force:R:3:map_shift:I:3:n_neighb:I:1:Z:I:1 virial="-115.0377699 -6.21e-05 7.042e-05 -6.21e-05 -229.83360682 0.00560413 7.042e-05 0.00560413 -26.76193574" cutoff=5.3 adsorbate_info=T nneightol=1.2 energy=-12440.86255866 pbc="T T T"
Fe      15.42402493      17.83489800      44.76687457       0.00000690       0.00005281      -0.00006725       -1       -1       -1       58       26
Fe      -0.14095345       2.62104002      48.76361027      -0.00000638      -0.00006936      -0.00002837        0        0       -1       51       26
Fe      16.83902735      19.82099990      45.08151447       0.00000093      -0.00002834      -0.00013890       -1       -1       -1       57       26
Fe      -0.14094279       4.87145458      49.96113488       0.00000356       0.00001066      -0.00010798        0        0       -1       54       26
Fe       1.27404543       6.85852566      48.76357234       0.00000218      -0.00006482      -0.00000031        0        0       -1       59       26
Fe      -0.14094028       7.14404346      51.11485102       0.00000198      -0.00015082       0.00005717        0        0       -1       58       26
Fe       1.27405682       9.10798835      50.77932646       0.00000201       0.00008859       0.00001568        0        0       -1       57       26
Fe      -0.14093354       9.58382953      52.76035034      -0.00001126       0.00010528      -0.00001350        0        0       -1       58       26
Fe       1.27406325      11.56996365      52.44572414       0.00001330      -0.00014008       0.00015991        0        0       -1       57       26
Fe      -0.14092842      12.05482131      54.32887322      -0.00001001      -0.00013145      -0.00007314        0        0       -1       58       26
Fe       1.27407017      14.00628550      53.79475028      -0.00000521       0.00003807      -0.00012863        0        0       -1       56       26
Fe      -0.14092460      14.47839261      55.72110244      -0.00000067       0.00011200       0.00004871        0        0       -1       58       26
Fe       1.27404584       0.60562607      48.76359763       0.00000205       0.00000881      -0.00006221        0        0       -1       58       26
Fe      -0.14094218       0.85718849      50.77932681      -0.00000880       0.00014000       0.00000590        0        0       -1       57       26
Fe       1.27405531       2.87771083      50.60890822       0.00002272      -0.00013137      -0.00004261        0        0       -1       53       26
Fe      -0.14093625       3.31916772      52.44572252       0.00001340      -0.00016053       0.00018386        0        0       -1       57       26
Fe       1.27406372       5.25486327      51.91250835       0.00000479       0.00012490       0.00003090        0        0       -1       55       26
Fe      -0.14092929       5.75548888      53.79475084      -0.00000927       0.00003517      -0.00013558        0        0       -1       56       26
Fe       1.27406929       7.64886183      53.18013133      -0.00000716      -0.00014612       0.00003897        0        0       -1       56       26
Fe      -0.14092579       8.14737855      55.17393468       0.00000459      -0.00012109       0.00006429        0        0       -1       58       26
Fe       1.27407208      10.08619474      54.72157156       0.00000718       0.00010830      -0.00004424        0        0       -1       58       26
Fe      -0.14092222      10.57966376      56.67406457       0.00000713       0.00006059       0.00004197        0        0       -1       58       26
Fe       1.27407497      12.53626461      56.23570717       0.00002671      -0.00004901       0.00010677        0        0       -1       58       26
Fe      -0.14091802      13.01764280      58.15936863      -0.00001337      -0.00001095      -0.00001200        0        0       -1       58       26
Fe       1.27408030      14.95886591      57.65675956      -0.00000581       0.00004223      -0.00006843        0        0       -1       58       26
Fe      -0.14091547      15.44151255      59.59616157      -0.00000336      -0.00002693       0.00003082        0        0       -1       58       26
Fe       1.27406745       1.33303135      52.76035073      -0.00001304       0.00012707      -0.00002542        0        0       -1       58       26
Fe      -0.14092770       1.83539663      54.72157152       0.00001120       0.00012943      -0.00005535        0        0       -1       58       26
Fe       1.27407344       3.80402534      54.32887275      -0.00003824      -0.00014998      -0.00007480        0        0       -1       58       26
Fe      -0.14092445       4.28546750      56.23570587       0.00001914      -0.00004597       0.00012394        0        0       -1       58       26
Fe       1.27407697       6.22759559      55.72110118      -0.00002131       0.00011333       0.00006921        0        0       -1       58       26
Fe      -0.14091889       6.70806948      57.65675970      -0.00001016       0.00003213      -0.00006698        0        0       -1       58       26
Fe       1.27407959       8.63887482      57.14067650      -0.00000665      -0.00000486      -0.00000311        0        0       -1       58       26
Fe      -0.14091606       9.12683077      59.09557469      -0.00000630       0.00003030      -0.00005112        0        0       -1       58       26
Fe       1.27408250      11.06829880      58.62129264       0.00000309      -0.00003307      -0.00004348        0        0       -1       58       26
Fe      -0.14091429      11.55507375      60.56584490       0.00000273      -0.00004596       0.00006966        0        0       -1       58       26
Fe       1.27408479      13.50050819      60.09170037       0.00000276       0.00001694       0.00005697        0        0       -1       58       26
Fe      -0.14091292      13.98417841      62.02869579       0.00000800       0.00004639       0.00001745        0        0       -1       58       26
Fe       1.27408745      15.92522018      61.53699104      -0.00000869      -0.00005551       0.00003515        0        0       -1       58       26
Fe       1.27407439      -0.10342063      55.17393364       0.00000222      -0.00008494       0.00007103        0        0       -1       58       26
Fe      -0.14092083       0.38808031      57.14067580       0.00000353      -0.00004658       0.00000010        0        0       -1       58       26
Fe       1.27407729       2.32886678      56.67406477       0.00001676       0.00006280       0.00001816        0        0       -1       58       26
Fe      -0.14091616       2.81749961      58.62129124      -0.00002302       0.00000263      -0.00002593        0        0       -1       58       26
Fe       1.27408167       4.76684600      58.15936885      -0.00000082      -0.00001415      -0.00002165        0        0       -1       58       26
Fe      -0.14091472       5.24971020      60.09170101       0.00000173       0.00003447       0.00003654        0        0       -1       58       26
Fe       1.27408489       7.19071782      59.59616205      -0.00000443      -0.00007073       0.00002627        0        0       -1       58       26
Fe      -0.14091218       7.67442286      61.53699040      -0.00000933      -0.00004272       0.00005325        0        0       -1       58       26
Fe       1.27408746       9.61334269      61.04443268      -0.00001632       0.00002215       0.00004231        0        0       -1       58       26
Fe      -0.14091018      10.09913064      62.99012916      -0.00002576       0.00006365      -0.00004088        0        0       -1       58       26
Fe       1.27408853      12.04094196      62.50936225      -0.00001263      -0.00006810       0.00003463        0        0       -1       58       26
Fe       1.27408340       0.87603616      59.09557204      -0.00000237      -0.00000945      -0.00002008        0        0       -1       58       26
Fe      -0.14091267       1.36254676      61.04443286      -0.00001681       0.00000260       0.00003320        0        0       -1       58       26
Fe       1.27408536       3.30427655      60.56584427       0.00000624      -0.00004310       0.00006959        0        0       -1       58       26
Fe      -0.14091234       3.79014443      62.50936133       0.00000517      -0.00005438       0.00004381        0        0       -1       58       26
Fe       1.27408831       5.73338178      62.02869540      -0.00001433       0.00004123       0.00002084        0        0       -1       58       26
Fe       1.27408842       1.84833396      62.99012685      -0.00000753       0.00006091      -0.00000852        0        0       -1       58       26
Fe      15.42401969      20.30594564      43.19836976      -0.00000028      -0.00000045       0.00011431       -1       -1       -1       58       26
Fe      16.83902160      22.25739097      43.73249288      -0.00001002      -0.00003754       0.00005091       -1       -1       -1       56       26
Fe      -0.14095424       8.85642293      48.76359931      -0.00000110       0.00000758      -0.00008423        0        0       -1       58       26
Fe       1.27404696      10.87183624      48.76361261      -0.00001658      -0.00005935      -0.00007442        0        0       -1       51       26
Fe      -0.14094268      11.12850643      50.60890928      -0.00002367      -0.00011115      -0.00006052        0        0       -1       53       26
Fe       1.27405728      13.12225172      49.96113451       0.00000076       0.00000834      -0.00009917        0        0       -1       54       26
Fe      -0.14093591      13.50566009      51.91250809      -0.00001066       0.00013711       0.00003389        0        0       -1       55       26
Fe       1.27406006      15.39484209      51.11485006      -0.00000035      -0.00017795       0.00006299        0        0       -1       58       26
Fe      -0.14093129      15.89966027      53.18013129       0.00000265      -0.00016833       0.00003888        0        0       -1       56       26
Fe      15.42401407      22.72959804      41.80613912       0.00001529      -0.00019810      -0.00010845       -1       -1       -1       58       26
Fe      15.42403598      19.37946054      46.91832717       0.00000470      -0.00008178       0.00006074       -1       -1       -1       53       26
Fe      -0.14095416      15.10932252      48.76357114      -0.00000052      -0.00006596       0.00000250        0        0       -1       59       26
Fe      -0.14091143      -0.09222934      63.47812152      -0.00000773      -0.00006418      -0.00001914        0        0       -1       58       26
Fe       1.27403455       9.10816422      46.74787190      -0.00000398       0.00000486       0.00006851        0        0       -1       57       26
Fe       2.68903809      11.12866166      46.91832598      -0.00004631      -0.00005983       0.00007915        0        0       -1       53       26
Fe       1.27402525      11.57020399      45.08151455       0.00003593      -0.00003831      -0.00013390        0        0       -1       57       26
Fe       2.68902851      13.50589346      45.61473811      -0.00000007       0.00002864      -0.00005778        0        0       -1       55       26
Fe       1.27402110      14.00659366      43.73249277       0.00000308      -0.00002096       0.00004986        0        0       -1       56       26
Fe       2.68902274      15.89995330      44.34705790      -0.00000229      -0.00007190       0.00003300        0        0       -1       56       26
Fe       1.27401613      16.39854663      42.35326812      -0.00000201       0.00013692       0.00008214        0        0       -1       58       26
Fe       2.68901869       1.83576643      42.80566276      -0.00000732      -0.00009643       0.00002206        0        0       -1       58       26
Fe       1.27401012       2.32932178      40.85318477       0.00003434      -0.00032945      -0.00010531        0        0       -1       58       26
Fe       2.68901458       4.28587095      41.29153619      -0.00001354       0.00021279      -0.00001528        0        0       -1       58       26
Fe       1.27400927       4.76730397      39.36787942      -0.00001507       0.00041001       0.00014561        0        0       -1       58       26
Fe       2.68903035       7.14423286      46.41232150       0.00001734      -0.00004826       0.00001935        0        0       -1       58       26
Fe       1.27402183       7.64915402      44.34705780       0.00000131      -0.00003195       0.00004155        0        0       -1       56       26
Fe       2.68902659       9.58410183      44.76687574      -0.00003116       0.00004022      -0.00008187        0        0       -1       58       26
Fe       1.27401707      10.08656474      42.80566257       0.00001228      -0.00013218       0.00003535        0        0       -1       58       26
Fe       2.68901952      12.05514941      43.19836950       0.00001179      -0.00000845       0.00010951        0        0       -1       58       26
Fe       1.27401350      12.53666460      41.29153540       0.00000470       0.00027482       0.00000437        0        0       -1       58       26
Fe       2.68901586      14.47880128      41.80613906      -0.00001393      -0.00018891      -0.00010318        0        0       -1       58       26
Fe       1.27400988      14.95935319      39.87049063       0.00000491      -0.00042726      -0.00005588        0        0       -1       58       26
Fe       2.68901183       0.38851926      40.38654523      -0.00000831       0.00032787       0.00011791        0        0       -1       58       26
Fe       1.27400583       0.87651305      38.43166123       0.00001827       0.00050989       0.00014972        0        0       -1       58       26
Fe       2.68900729       2.81801265      38.90596995       0.00000757      -0.00053004      -0.00011094        0        0       -1       58       26
Fe       1.27400337       3.30482390      36.96142216       0.00001223      -0.00075885      -0.00019723        0        0       -1       58       26
Fe       2.68900495       5.25018741      37.43555183       0.00000328       0.00069958       0.00011446        0        0       -1       58       26
Fe       1.27400106       5.73387939      35.49856271       0.00002405       0.00078165       0.00021304        0        0       -1       58       26
Fe       2.68901523       8.14775007      42.35326852       0.00000534       0.00013090       0.00007697        0        0       -1       58       26
Fe       1.27401051       8.63931586      40.38654366       0.00000500       0.00032702       0.00015139        0        0       -1       58       26
Fe       2.68901117      10.58011978      40.85318534       0.00002343      -0.00034482      -0.00010321        0        0       -1       58       26
Fe       1.27400853      11.06880910      38.90597238      -0.00001453      -0.00052276      -0.00016201        0        0       -1       58       26
Fe       2.68900905      13.01810092      39.36788150      -0.00000081       0.00041201       0.00011595        0        0       -1       58       26
Fe       1.27400513      13.50098624      37.43555153       0.00000059       0.00065893       0.00013473        0        0       -1       58       26
Fe       2.68900536      15.44204663      37.93109597       0.00001365      -0.00065259      -0.00018742        0        0       -1       58       26
Fe       1.27400337      15.92578130      35.99027000      -0.00000196      -0.00077096      -0.00015446        0        0       -1       58       26
Fe       2.68900465       1.36303338      36.48280399      -0.00001804       0.00074157       0.00019398        0        0       -1       58       26
Fe       1.27400225       1.84885306      34.53712183      -0.00001382       0.00075399       0.00019608        0        0       -1       58       26
Fe       2.68900153       3.79071716      35.01791591       0.00001058      -0.00077169      -0.00019410        0        0       -1       58       26
Fe       1.27400070       4.27628177      33.07449261       0.00000370      -0.00081639      -0.00025465        0        0       -1       58       26
Fe       2.68900131       6.21802576      33.55908117      -0.00000287       0.00080518       0.00015220        0        0       -1       58       26
Fe       2.68900934       6.70855614      39.87049012       0.00000795      -0.00041890      -0.00004935        0        0       -1       58       26
Fe       1.27400608       7.19125111      37.93109771      -0.00000439      -0.00068545      -0.00022718        0        0       -1       58       26
Fe       2.68900614       9.12730907      38.43166109       0.00001221       0.00052561       0.00015464        0        0       -1       58       26
Fe       1.27400416       9.61382994      36.48280256      -0.00001195       0.00075303       0.00021929        0        0       -1       58       26
Fe       2.68900448      11.55561899      36.96142185      -0.00000285      -0.00072532      -0.00018221        0        0       -1       58       26
Fe       1.27400217      12.04151570      35.01791732       0.00000203      -0.00080052      -0.00021626        0        0       -1       58       26
Fe       2.68900231      13.98467699      35.49856413       0.00000796       0.00077114       0.00019660        0        0       -1       58       26
Fe       1.27400087      14.46882166      33.55908205       0.00000422       0.00083024       0.00014273        0        0       -1       58       26
Fe       2.68900237      16.40995651      34.04915416      -0.00002340      -0.00078385      -0.00026437        0        0       -1       58       26
Fe       1.27400038       0.39263589      32.10843666       0.00000039      -0.00088368      -0.00010472        0        0       -1       58       26
Fe       2.68900024       2.33437543      32.59303180       0.00000915       0.00083075       0.00021929        0        0       -1       58       26
Fe       2.68900212       7.67498546      35.99026897       0.00001518      -0.00079565      -0.00013593        0        0       -1       58       26
Fe       1.27400076       8.15915918      34.04915588       0.00001065      -0.00077887      -0.00030248        0        0       -1       58       26
Fe       2.68900164      10.09964765      34.53712350      -0.00000250       0.00079139       0.00016668        0        0       -1       58       26
Fe       1.27399934      10.58517217      32.59302951       0.00002552       0.00083256       0.00027003        0        0       -1       58       26
Fe       2.68900052      12.52707958      33.07449209       0.00000693      -0.00083586      -0.00023382        0        0       -1       58       26
Fe       2.68900126       8.64343192      32.10843783      -0.00001154      -0.00087263      -0.00012858        0        0       -1       58       26
Fe       1.27403451      13.12237132      47.56610759       0.00000328      -0.00003470       0.00006686        0        0       -1       54       26
Fe       1.27408889       8.15856926      63.47812212      -0.00000748      -0.00009078      -0.00002054        0        0       -1       58       26
Fe       1.27403140      15.39503004      46.41232165       0.00000671      -0.00005509       0.00001570        0        0       -1       58       26
Fe       2.68903377       0.85736850      46.74787165       0.00001305      -0.00001630       0.00007320        0        0       -1       57       26
Fe       1.27402627       1.33330460      44.76687498      -0.00001358       0.00003819      -0.00007653        0        0       -1       58       26
Fe       2.68902665       3.31940578      45.08151515       0.00001328      -0.00001392      -0.00016416        0        0       -1       57       26
Fe       1.27401974       3.80435237      43.19836967       0.00000670      -0.00001009       0.00010247        0        0       -1       58       26
Fe       2.68901992       5.75579713      43.73249117       0.00002373      -0.00002911       0.00008217        0        0       -1       56       26
Fe       1.27401660       6.22800376      41.80613960      -0.00003145      -0.00018738      -0.00012750        0        0       -1       58       26
Fe       1.27403746       2.87786558      46.91832612      -0.00002308      -0.00007091       0.00007365        0        0       -1       53       26
Fe      16.83903450      21.37316777      47.56610776       0.00000471      -0.00002469       0.00006678       -1       -1       -1       54       26
Fe       1.27402835       5.25509717      45.61473812      -0.00000088       0.00001389      -0.00006093        0        0       -1       55       26
Fe      15.42402838      21.75668983      45.61473883      -0.00000165       0.00003076      -0.00006696       -1       -1       -1       55       26
Fe       1.27404310       3.98907649      16.90387424      -0.00001702       0.00000772      -0.00005180        0        0        0       51       26
Fe      14.00907366      16.88360871       9.94640656      -0.00001233       0.00021649      -0.00014371       -1       -1        0       58       26
Fe       1.27403119       1.73868282      18.10139617       0.00000094       0.00008890      -0.00009117        0        0        0       54       26
Fe       2.68904326      16.25318762      16.90380226      -0.00000009       0.00001432       0.00006572        0        0        0       59       26
Fe       1.27402922      15.96773246      19.25510693      -0.00000092      -0.00022700      -0.00002320        0        0        0       58       26
Fe       2.68903090      14.00374428      18.91959345       0.00000857       0.00024135      -0.00001544        0        0        0       57       26
Fe       1.27402276      13.52792233      20.90061797       0.00000038       0.00028866       0.00006085        0        0        0       58       26
Fe       2.68902430      11.54182287      20.58600522       0.00000702      -0.00027159       0.00004838        0        0        0       57       26
Fe       1.27401743      11.05696552      22.46915452       0.00000468      -0.00031129      -0.00017890        0        0        0       58       26
Fe       2.68901989       9.10547001      21.93501082      -0.00001872       0.00031402      -0.00001527        0        0        0       56       26
Fe       1.27401366       8.63334025      23.86135689      -0.00000945       0.00049842       0.00025574        0        0        0       58       26
Fe       2.68904145       6.00448274      16.90385153       0.00002458       0.00009995       0.00004175        0        0        0       58       26
Fe       1.27403224       5.75294851      18.91959162      -0.00001432       0.00022488      -0.00000085        0        0        0       57       26
Fe       2.68903093       3.73245248      18.74918085       0.00002267      -0.00007704      -0.00007115        0        0        0       53       26
Fe       1.27402487       3.29102400      20.58600499      -0.00001135      -0.00023556       0.00003445        0        0        0       57       26
Fe       2.68902333       1.35529392      20.05277090       0.00003246       0.00016363       0.00011615        0        0        0       55       26
Fe       1.27401869       0.85467424      21.93500889      -0.00000340       0.00028917       0.00002153        0        0        0       56       26
Fe       2.68901940      15.46292951      21.32040146       0.00000589      -0.00027656      -0.00008545        0        0        0       56       26
Fe       1.27401374      14.96440963      23.31420785       0.00000321      -0.00043313      -0.00008349        0        0        0       58       26
Fe       2.68901436      13.02554739      22.86183807       0.00002787       0.00038173       0.00007120        0        0        0       58       26
Fe       1.27401027      12.53205454      24.81432931       0.00000284       0.00070210       0.00018939        0        0        0       58       26
Fe       2.68901255      10.57552424      24.37599041      -0.00000798      -0.00064595      -0.00008918        0        0        0       58       26
Fe       1.27400692      10.09414772      26.29964863       0.00001273      -0.00090811      -0.00027029        0        0        0       58       26
Fe       2.68900787       8.15283849      25.79701249       0.00001012       0.00087791       0.00013918        0        0        0       58       26
Fe       1.27400340       7.67018142      27.73640706       0.00001955       0.00095683       0.00035647        0        0        0       58       26
Fe       2.68902324       5.27712720      20.90061633      -0.00000908       0.00025640       0.00007113        0        0        0       58       26
Fe       1.27401511       4.77474946      22.86183705       0.00001089       0.00040500       0.00007628        0        0        0       58       26
Fe       2.68901647       2.80616758      22.46915362       0.00001833      -0.00028904      -0.00017072        0        0        0       58       26
Fe       1.27401184       2.32472669      24.37598930       0.00000332      -0.00063266      -0.00007172        0        0        0       58       26
Fe       2.68901341       0.38254423      23.86135860      -0.00000348       0.00047799       0.00023403        0        0        0       58       26
Fe       1.27400902      16.40363721      25.79701265      -0.00000979       0.00085998       0.00014476        0        0        0       58       26
Fe       2.68900915      14.47291280      25.28095384       0.00000465      -0.00077759      -0.00023918        0        0        0       58       26
Fe       1.27400588      13.98495531      27.23584901      -0.00000357      -0.00096959      -0.00021212        0        0        0       58       26
Fe       2.68900775      12.04340463      26.76155313      -0.00002278       0.00092708       0.00016482        0        0        0       58       26
Fe       1.27400246      11.55661296      28.70610018       0.00002179       0.00091889       0.00026587        0        0        0       58       26
Fe       2.68900430       9.61126926      28.23196872      -0.00000619      -0.00097647      -0.00013257        0        0        0       58       26
Fe       1.27400011       9.12756849      30.16896012       0.00002632      -0.00084202      -0.00028727        0        0        0       58       26
Fe       2.68900240       7.18645537      29.67724407      -0.00000906       0.00090253       0.00015263        0        0        0       58       26
Fe       2.68901513       6.71361517      23.31420657      -0.00001895      -0.00047779      -0.00008412        0        0        0       58       26
Fe       1.27400881       6.22211635      25.28095336       0.00000923      -0.00078703      -0.00025021        0        0        0       58       26
Fe       2.68901089       4.28125749      24.81432923      -0.00000377       0.00070695       0.00016617        0        0        0       58       26
Fe       1.27400675       3.79260833      26.76155302       0.00000188       0.00092059       0.00015732        0        0        0       58       26
Fe       2.68900835       1.84335037      26.29964774      -0.00001659      -0.00090146      -0.00025505        0        0        0       58       26
Fe       1.27400445       1.36047233      28.23196877      -0.00000685      -0.00096293      -0.00013540        0        0        0       58       26
Fe       2.68900422      15.92097909      27.73640813       0.00000541       0.00093982       0.00034593        0        0        0       58       26
Fe       1.27400124      15.43725416      29.67724469       0.00001032       0.00087111       0.00015393        0        0        0       58       26
Fe       2.68900354      13.49841522      29.18471202      -0.00001614      -0.00083593      -0.00024527        0        0        0       58       26
Fe       1.27399874      13.01260597      31.13039832       0.00003658      -0.00085793      -0.00021536        0        0        0       58       26
Fe       2.68900183      11.07072626      30.64961119      -0.00000548       0.00088589       0.00016588        0        0        0       58       26
Fe       2.68900469       5.73415830      27.23584827       0.00001997      -0.00096721      -0.00021156        0        0        0       58       26
Fe       1.27400386       5.24761748      29.18471129      -0.00001723      -0.00082160      -0.00024399        0        0        0       58       26
Fe       2.68900337       3.30581729      28.70609977       0.00000502       0.00089458       0.00026328        0        0        0       58       26
Fe       1.27400091       2.81993015      30.64961075       0.00001148       0.00088070       0.00016699        0        0        0       58       26
Fe       2.68899991       0.87677022      30.16895985       0.00002446      -0.00081031      -0.00028077        0        0        0       58       26
Fe       2.68900152       4.76181101      31.13039601      -0.00001120      -0.00089367      -0.00018253        0        0        0       58       26
Fe      15.42404219      20.49067022      16.90387350       0.00000177       0.00001578      -0.00003383       -1       -1        0       51       26
Fe      14.00905155      20.23381783      15.05858819       0.00000877      -0.00001842       0.00004456       -1       -1        0       53       26
Fe       1.27404424      14.25527992      16.90385254      -0.00002265       0.00009743       0.00004823        0        0        0       58       26
Fe       2.68904245      12.23987341      16.90387302       0.00000260       0.00000586      -0.00001090        0        0        0       51       26
Fe       1.27403330      11.98324995      18.74918315      -0.00001096      -0.00007977      -0.00011025        0        0        0       53       26