16248
Lattice="16.98 0.0 0.0 0.0 73.79737123 0.0 0.0 0.0 147.54817643" Properties=species:S:1:pos:R:3:force:R:3:map_shift:I:3:n_neighb:I:1:Z:I:1 virial="-306.89086143 -5.0615279 241.84519789 -5.0615279 -491.40438928 -24.46791785 241.84519789 -24.46791785 -226.73928472" cutoff=5.3 adsorbate_info=T nneightol=1.2 energy=-65019.58538167 pbc="T T T"
Fe      14.47626990      50.59331507      25.49334816      -0.00018811      -0.00000133       0.00000197       -1       -1        0       58       26 
Fe       0.42253588       2.13969408     111.75815048      -0.00003730      -0.00003144      -0.00001053        0        0       -1       58       26 
Fe       1.83775196       4.14322439     111.64187616      -0.00002679      -0.00003061      -0.00002068        0        0       -1       57       26 
Fe       0.42102847       4.54042793     113.57618235      -0.00006818      -0.00002975      -0.00001167        0        0       -1       58       26 
Fe       1.83627614       6.54964526     113.33104964      -0.00005719      -0.00003226      -0.00001262        0        0       -1       56       26 
Fe       0.41979590       6.98074022     115.19757539      -0.00008939      -0.00001920      -0.00000642        0        0       -1       58       26 
Fe       1.83505614       8.94838863     114.69125258      -0.00007290      -0.00002248      -0.00000150        0        0       -1       56       26 
Fe       0.41865506       9.37115157     116.61304953      -0.00011084      -0.00002946      -0.00000241        0        0       -1       58       26 
Fe       1.83392429      11.30216718     116.08743407      -0.00010244      -0.00001474      -0.00001122        0        0       -1       58       26 
Fe       0.41748691      11.74201854     118.06039367      -0.00013067      -0.00003093       0.00000292        0        0       -1       58       26 
Fe       1.83283042      13.69130680     117.62148078      -0.00013178      -0.00002937       0.00000262        0        0       -1       58       26 
Fe       0.41629976      14.12811556     119.58037914      -0.00015682      -0.00003561      -0.00000675        0        0       -1       58       26 
Fe       1.83163913      16.08376611     119.14869872      -0.00015126      -0.00002917      -0.00000531        0        0       -1       58       26 
Fe       0.41507378      16.51614547     121.09792891      -0.00017083      -0.00003880       0.00001763        0        0       -1       58       26 
Fe       1.83041628      18.46401199     120.64193314      -0.00016333      -0.00003219       0.00001552        0        0       -1       58       26 
Fe       0.41380894      18.89864958     122.60269745      -0.00018323      -0.00003503       0.00000228        0        0       -1       58       26 
Fe       1.82917365      20.84597175     122.15944722      -0.00017769      -0.00003343       0.00000953        0        0       -1       58       26 
Fe       0.41250852      21.28323565     124.12435480      -0.00020435      -0.00005833       0.00000001        0        0       -1       58       26 
Fe       1.82788454      23.23600538     123.70175116      -0.00019631      -0.00005360      -0.00002254        0        0       -1       58       26 
Fe       0.41113875      23.67304194     125.66057080      -0.00022712      -0.00005800       0.00001256        0        0       -1       58       26 
Fe       1.82655196      25.62989053     125.24308603      -0.00022644      -0.00005815       0.00001185        0        0       -1       58       26 
Fe       0.40972948      26.06516343     127.19505544      -0.00025100      -0.00004799       0.00000380        0        0       -1       58       26 
Fe       1.82516082      28.02197430     126.76889052      -0.00024435      -0.00004480       0.00000997        0        0       -1       58       26 
Fe       0.40824007      28.45590413     128.71892957      -0.00025994      -0.00004582       0.00000040        0        0       -1       58       26 
Fe       1.82367416      30.41050525     128.28333195      -0.00024887      -0.00005539      -0.00000561        0        0       -1       58       26 
Fe       0.40667485      30.84430451     130.23531597      -0.00027507      -0.00005666       0.00000681        0        0       -1       58       26 
Fe       1.82213381      32.79746851     129.79676026      -0.00026754      -0.00006396       0.00001946        0        0       -1       58       26 
Fe       0.40504640      33.23153547     131.75059696      -0.00029826      -0.00007152       0.00000715        0        0       -1       58       26 
Fe       1.82053161      35.18417997     131.31233853      -0.00030244      -0.00005704      -0.00001380        0        0       -1       58       26 
Fe       0.40333967      35.61846500     133.26722383      -0.00032203      -0.00007163       0.00000933        0        0       -1       58       26 
Fe       1.83719007       0.17828029     112.06863044      -0.00004729      -0.00002051      -0.00002809        0        0       -1       58       26 
Fe       0.42003480       0.63002567     114.18980129      -0.00008458      -0.00003335       0.00000120        0        0       -1       56       26 
Fe       1.83557726       2.56147091     113.80300749      -0.00007296      -0.00001616      -0.00001015        0        0       -1       58       26 
Fe       0.41903960       3.01569971     115.81348292      -0.00010402      -0.00001428      -0.00001238        0        0       -1       58       26 
Fe       1.83448376       4.98596398     115.50910672      -0.00009646      -0.00003880      -0.00003524        0        0       -1       58       26 
Fe       0.41799280       5.43086189     117.44938824      -0.00012672      -0.00002532      -0.00000632        0        0       -1       58       26 
Fe       1.83334863       7.41161493     117.09110812      -0.00011770      -0.00001876       0.00000380        0        0       -1       58       26 
Fe       0.41683744       7.84192310     119.00733114      -0.00014095      -0.00003445      -0.00001106        0        0       -1       58       26 
Fe       1.83216523       9.79989311     118.54766149      -0.00013516      -0.00003331       0.00000214        0        0       -1       58       26 
Fe       0.41562115      10.23030449     120.48909606      -0.00016555      -0.00003430      -0.00000366        0        0       -1       58       26 
Fe       1.83095289      12.17791776     120.02294759      -0.00016040      -0.00004110      -0.00000157        0        0       -1       58       26 
Fe       0.41438003      12.61234694     121.98035457      -0.00018503      -0.00004597      -0.00000086        0        0       -1       58       26 
Fe       1.82973029      14.56327065     121.53691323      -0.00017897      -0.00003595       0.00000450        0        0       -1       58       26 
Fe       0.41308867      14.99779240     123.49242202      -0.00020448      -0.00003927      -0.00000679        0        0       -1       58       26 
Fe       1.82844439      16.94962804     123.05122819      -0.00018716      -0.00004778      -0.00000268        0        0       -1       58       26 
Fe       0.41173638      17.38366601     125.00636827      -0.00021522      -0.00005899       0.00001711        0        0       -1       58       26 
Fe       1.82712033      19.33369628     124.56266012      -0.00020786      -0.00004574       0.00001081        0        0       -1       58       26 
Fe       0.41033670      19.76883985     126.52164546      -0.00023779      -0.00006634       0.00000639        0        0       -1       58       26 
Fe       1.82573889      21.71976069     126.08589306      -0.00022869      -0.00005911       0.00001418        0        0       -1       58       26 
Fe       0.40887071      22.15577187     128.04523219      -0.00025698      -0.00004672       0.00000244        0        0       -1       58       26 
Fe       1.82429905      24.10928367     127.61776179      -0.00025733      -0.00005559       0.00000513        0        0       -1       58       26 
Fe       0.40734969      24.54496880     129.57397316      -0.00027183      -0.00006091      -0.00001503        0        0       -1       58       26 
Fe       1.82279851      26.50015149     129.14772597      -0.00027023      -0.00005664       0.00000405        0        0       -1       58       26 
Fe       0.40575227      26.93495989     131.10091298      -0.00029202      -0.00006878       0.00003283        0        0       -1       58       26 
Fe       1.82121373      28.89001863     130.67039891      -0.00028158      -0.00006893       0.00000492        0        0       -1       58       26 
Fe      17.38406462      29.32420501     132.62281923      -0.00030375      -0.00007316       0.00001376       -1        0       -1       58       26 
Fe       1.81955379      31.27826822     132.18799762      -0.00029359      -0.00006089       0.00001430        0        0       -1       58       26 
Fe       0.40229945      31.71232725     134.14119698      -0.00030780      -0.00007847      -0.00001493        0        0       -1       58       26 
Fe       1.81782291      33.66564564     133.70460030      -0.00032480      -0.00006968      -0.00000401        0        0       -1       58       26 
Fe       0.40045416      34.09978674     135.65875655      -0.00032375      -0.00004848       0.00002176        0        0       -1       58       26 
Fe       1.81600179      36.05274557     135.22209380      -0.00032927      -0.00008080       0.00002423        0        0       -1       58       26 
Fe       0.39851331      36.48701406     137.17694600      -0.00033520      -0.00008267       0.00000304        0        0       -1       58       26 
Fe       1.83364233       1.07625603     116.21661593      -0.00011760      -0.00001950       0.00000436        0        0       -1       58       26 
Fe       0.41724994       1.51845100     118.21053766      -0.00014541      -0.00002178       0.00000548        0        0       -1       58       26 
Fe       1.83262198       3.46483962     117.80021523      -0.00014022      -0.00002874      -0.00000802        0        0       -1       58       26 
Fe       0.41611343       3.90823736     119.77400524      -0.00016098      -0.00003086      -0.00000754        0        0       -1       58       26 
Fe       1.83149668       5.87091363     119.39446890      -0.00015156      -0.00003345      -0.00001056        0        0       -1       58       26 
Fe       0.41493243       6.30848982     121.34240489      -0.00017367      -0.00004505      -0.00000798        0        0       -1       58       26 
Fe       1.83028561       8.27338206     120.93757654      -0.00016957      -0.00004162      -0.00000065        0        0       -1       58       26 
Fe       0.41366184       8.70579821     122.87657594      -0.00019407      -0.00004635       0.00000864        0        0       -1       58       26 
Fe       1.82903167      10.66192763     122.43454467      -0.00019313      -0.00003921       0.00000389        0        0       -1       58       26 
Fe       0.41235833      11.09446470     124.38252242      -0.00020700      -0.00004008       0.00000686        0        0       -1       58       26 
Fe       1.82772533      13.04633285     123.93535721      -0.00021164      -0.00005320       0.00001209        0        0       -1       58       26 
Fe       0.41096704      13.48022169     125.88936374      -0.00022915      -0.00006851      -0.00000030        0        0       -1       58       26 
Fe       1.82635574      15.43206562     125.44753167      -0.00022487      -0.00004142       0.00000325        0        0       -1       58       26 
Fe       0.40952502      15.86628580     127.40249759      -0.00025189      -0.00004325       0.00001468        0        0       -1       58       26 
Fe       1.82493187      17.81799408     126.96221890      -0.00024994      -0.00005339       0.00001212        0        0       -1       58       26 
Fe       0.40801978      18.25250498     128.91822714      -0.00027384      -0.00006050      -0.00000355        0        0       -1       58       26 
Fe       1.82344487      20.20398310     128.47972039      -0.00026484      -0.00006568      -0.00001150        0        0       -1       58       26 
Fe       0.40643858      20.63902632     130.43701631      -0.00028740      -0.00005207       0.00001703        0        0       -1       58       26 
Fe       1.82189318      22.59136902     130.00311517      -0.00028738      -0.00006481      -0.00000275        0        0       -1       58       26 
Fe       0.40479326      23.02664221     131.96001325      -0.00030453      -0.00008364      -0.00000027        0        0       -1       58       26 
Fe       1.82028025      24.98026810     131.52958104      -0.00029971      -0.00005825       0.00002836        0        0       -1       58       26 
Fe       0.40307309      25.41527171     133.48484150      -0.00031101      -0.00007378      -0.00001403        0        0       -1       58       26 
Fe       1.81857596      27.36961973     133.05450114      -0.00031749      -0.00007799       0.00000078        0        0       -1       58       26 
Fe       0.40125664      27.80417696     135.00837063      -0.00033479      -0.00006413       0.00001935        0        0       -1       58       26 
Fe       1.81677772      29.75843068     134.57588041      -0.00031825      -0.00006155      -0.00000471        0        0       -1       58       26 
Fe       0.39934592      30.19266346     136.52938297      -0.00033810      -0.00004640       0.00001102        0        0       -1       58       26 
Fe       1.81490018      32.14643677     136.09477527      -0.00033505      -0.00008458       0.00001563        0        0       -1       58       26 
Fe       0.39735011      32.58056594     138.04863810      -0.00035179      -0.00010418      -0.00001689        0        0       -1       58       26 
Fe       1.81293506      34.53393966     137.61304555      -0.00034166      -0.00006167      -0.00003297        0        0       -1       58       26 
Fe       0.39526045      34.96808888     139.56742769      -0.00035086      -0.00007541       0.00002269        0        0       -1       58       26 
Fe       0.41543567       0.01467513     120.64196833      -0.00017699      -0.00003549      -0.00001265        0        0       -1       58       26 
Fe       1.83077192       1.95830691     120.18928880      -0.00016907      -0.00003517       0.00000419        0        0       -1       58       26 
Fe       0.41419752       2.39663596     122.15947338      -0.00019127      -0.00005276       0.00002433        0        0       -1       58       26 
Fe       1.82955628       4.34839754     121.74018438      -0.00018122      -0.00003149      -0.00000958        0        0       -1       58       26 
Fe       0.41290113       4.78666062     123.70177155      -0.00019469      -0.00003615       0.00000582        0        0       -1       58       26 
Fe       1.82828628       6.74486124     123.29210657      -0.00019450      -0.00004671       0.00000795        0        0       -1       58       26 
Fe       0.41155937       7.18054272     125.24310086      -0.00021075      -0.00004790      -0.00000368        0        0       -1       58       26 
Fe       1.82695923       9.13897904     124.82103868      -0.00021068      -0.00005127       0.00001109        0        0       -1       58       26 
Fe       0.41016695       9.57263398     126.76889365      -0.00023257      -0.00006072       0.00000872        0        0       -1       58       26 
Fe       1.82557421      11.52762329     126.33228511      -0.00023630      -0.00004292      -0.00000836        0        0       -1       58       26 
Fe       0.40868568      11.96116328     128.28332421      -0.00026845      -0.00004106       0.00000006        0        0       -1       58       26 
Fe       1.82410972      13.91412504     127.84304587      -0.00026110      -0.00005830       0.00001200        0        0       -1       58       26 
Fe       0.40714064      14.34812018     129.79673935      -0.00028687      -0.00005709       0.00000344        0        0       -1       58       26 
Fe       1.82258429      16.30054727     129.35741089      -0.00028382      -0.00006009       0.00000578        0        0       -1       58       26 
Fe       0.40551991      16.73483458     131.31230422      -0.00029958      -0.00006526       0.00001629        0        0       -1       58       26 
Fe       1.82098495      18.68706153     130.87415952      -0.00028841      -0.00006482       0.00002316        0        0       -1       58       26 
Fe       0.40381779      19.12159810     132.82993380      -0.00030343      -0.00008250       0.00000249        0        0       -1       58       26 
Fe       1.81930528      21.07393763     132.39369784      -0.00030105      -0.00007033      -0.00001194        0        0       -1       58       26 
Fe       0.40203430      21.50871432     134.34990066      -0.00032019      -0.00006980       0.00001451        0        0       -1       58       26 
Fe       1.81755521      23.46165445     133.91624246      -0.00030879      -0.00006353      -0.00000062        0        0       -1       58       26 
Fe       0.40017241      23.89647652     135.87201683      -0.00032276      -0.00005895       0.00002139        0        0       -1       58       26 
Fe       1.81572231      25.85007716     135.43987132      -0.00033445      -0.00007281       0.00002838        0        0       -1       58       26 
Fe       0.39822118      26.28471979     137.39476819      -0.00035246      -0.00007242       0.00000185        0        0       -1       58       26 
Fe       1.81378845      28.23864567     136.96244378      -0.00033494      -0.00008667       0.00001642        0        0       -1       58       26 
Fe       0.39616776      28.67301662     138.91666784      -0.00034892      -0.00007317       0.00000999        0        0       -1       58       26 
Fe       1.81176156      30.62687617     138.48320052      -0.00036112      -0.00006685      -0.00000483        0        0       -1       58       26 
Fe       0.39401907      31.06105518     140.43723843      -0.00037194      -0.00008971       0.00000171        0        0       -1       58       26 
Fe       1.80964266      33.01468361     140.00270294      -0.00035923      -0.00005994       0.00001163        0        0       -1       58       26 
Fe       0.39177387      33.44878552     141.95691564      -0.00037342      -0.00005885       0.00000823        0        0       -1       58       26 
Fe       1.80742805      35.40221902     141.52189028      -0.00036020      -0.00009050      -0.00001638        0        0       -1       58       26 
Fe       0.38943129      35.83631652     143.47640368      -0.00038849      -0.00007487       0.00001677        0        0       -1       58       26 
Fe       1.82882748       0.44931499     122.60273178      -0.00019425      -0.00003318       0.00002518        0        0       -1       58       26 
Fe       0.41213521       0.88435877     124.56270038      -0.00021063      -0.00004985      -0.00003978        0        0       -1       58       26 
Fe       1.82752645       2.83389410     124.12438514      -0.00020538      -0.00005821      -0.00000269        0        0       -1       58       26 
Fe       0.41075398       3.27041771     126.08592368      -0.00023231      -0.00005724       0.00001861        0        0       -1       58       26 
Fe       1.82615065       5.22369545     125.66059482      -0.00021712      -0.00004518      -0.00000998        0        0       -1       58       26 
Fe       0.40931141       5.65994435     127.61778354      -0.00025412      -0.00004956       0.00000656        0        0       -1       58       26 
Fe       1.82473692       7.61582312     127.19506589      -0.00023512      -0.00004757       0.00001670        0        0       -1       58       26 
Fe       0.40780960       8.05081193     129.14773785      -0.00026797      -0.00004958       0.00001516        0        0       -1       58       26 
Fe       1.82325002      10.00656507     128.71893117      -0.00025691      -0.00006992       0.00001561        0        0       -1       58       26 
Fe       0.40622591      10.44067510     130.67040125      -0.00029145      -0.00007058       0.00000727        0        0       -1       58       26 
Fe       1.82168535      12.39495939     130.23530847      -0.00028590      -0.00005260      -0.00000062        0        0       -1       58       26 
Fe       0.40455944      12.82892708     132.18798587      -0.00029844      -0.00008071       0.00001213        0        0       -1       58       26 
Fe       1.82004457      14.78219113     131.75057237      -0.00030024      -0.00007137       0.00001397        0        0       -1       58       26 
Fe       0.40281349      15.21630379     133.70457213      -0.00031027      -0.00007763       0.00001207        0        0       -1       58       26 
Fe       1.81832072      17.16912088     133.26718992      -0.00030465      -0.00007111       0.00001408        0        0       -1       58       26 
Fe       0.40098079      17.60339686     135.22206226      -0.00031274      -0.00006659       0.00001702        0        0       -1       58       26 
Fe       1.81651150      19.55608767     134.78552010      -0.00031322      -0.00007092       0.00002015        0        0       -1       58       26 
Fe       0.39906041      19.99053284     136.74093914      -0.00032020      -0.00005772       0.00000716        0        0       -1       58       26 
Fe       1.81461774      21.94337767     136.30573634      -0.00032281      -0.00007085       0.00000858        0        0       -1       58       26 
Fe       0.39705148      22.37793431     138.26129862      -0.00032867      -0.00006583       0.00000093        0        0       -1       58       26 
Fe       1.81264035      24.33114527     137.82748236      -0.00034769      -0.00008204       0.00001058        0        0       -1       58       26 
Fe       0.39495196      24.76566829     139.78274110      -0.00036213      -0.00007646       0.00001586        0        0       -1       58       26 
Fe       1.81056477      26.71921877     139.34958609      -0.00034382      -0.00005874       0.00000934        0        0       -1       58       26 
Fe       0.39274955      27.15359970     141.30436117      -0.00036064      -0.00006856       0.00002446        0        0       -1       58       26 
Fe       1.80838912      29.10730182     140.87100191      -0.00037663      -0.00006030       0.00000736        0        0       -1       58       26 
Fe       0.39044449      29.54151325     142.82541779      -0.00037294      -0.00006132      -0.00001301        0        0       -1       58       26 
Fe       1.80611337      31.49518989     142.39143082      -0.00037992      -0.00008823       0.00001892        0        0       -1       58       26 
Fe       0.38803931      31.92927364     144.34573329      -0.00037056      -0.00007114      -0.00000516        0        0       -1       58       26 
Fe       1.80373960      33.88285402     143.91123344      -0.00038179      -0.00008167       0.00001621        0        0       -1       58       26 
Fe       0.38553528      34.31687747     145.86562296      -0.00038752      -0.00006915       0.00003204        0        0       -1       58       26 
Fe       1.80126422      36.27037399     145.43095840      -0.00038035      -0.00006168       0.00000886        0        0       -1       58       26 
Fe       1.82534977       1.31949955     126.52168347      -0.00023165      -0.00004065       0.00001203        0        0       -1       58       26 
Fe       0.40846322       1.75464780     128.47975767      -0.00027309      -0.00005574      -0.00002489        0        0       -1       58       26 
Fe       1.82388883       3.70643712     128.04526283      -0.00026378      -0.00007787      -0.00000935        0        0       -1       58       26 
Fe       0.40691502       4.14203141     130.00314394      -0.00029025      -0.00005910       0.00001077        0        0       -1       58       26 
Fe       1.82236633       6.09563085     129.57399348      -0.00028005      -0.00006275       0.00001515        0        0       -1       58       26 
Fe       0.40529860       6.53092862     131.52960744      -0.00030011      -0.00007953      -0.00001121        0        0       -1       58       26 
Fe       1.82076561       8.48561777     131.10092798      -0.00029163      -0.00006582      -0.00000624        0        0       -1       58       26 
Fe       0.40358837       8.92028031     133.05451382      -0.00031484      -0.00007798       0.00002631        0        0       -1       58       26 
Fe       1.81907399      10.87486390     132.62282040      -0.00030954      -0.00006502       0.00001286        0        0       -1       58       26 
Fe       0.40178255      11.30909142     134.57587940      -0.00031853      -0.00006277      -0.00000737        0        0       -1       58       26 
Fe       1.81729902      13.26298594     134.14118235      -0.00031765      -0.00008171      -0.00000878        0        0       -1       58       26 
Fe      17.37989647      13.69709072     136.09475910      -0.00033103      -0.00006690       0.00000648       -1        0       -1       58       26 
Fe       1.81544241      15.65043987     135.65872886      -0.00032152      -0.00006918       0.00001869        0        0       -1       58       26 
Fe       0.39792549      16.08459264     137.61301453      -0.00033473      -0.00007600       0.00001388        0        0       -1       58       26 
Fe       1.81349692      18.03766465     137.17691473      -0.00032223      -0.00006778       0.00001940        0        0       -1       58       26 
Fe       0.39586381      18.47191337     139.13174977      -0.00035395      -0.00008004       0.00001885        0        0       -1       58       26 
Fe       1.81146064      20.42492876     138.69621177      -0.00033747      -0.00007160       0.00000435        0        0       -1       58       26 
Fe       0.39370435      20.85925698     140.65137228      -0.00035695      -0.00006381       0.00001704        0        0       -1       58       26 
Fe       1.80933095      22.81238617     140.21665742      -0.00036073      -0.00006742       0.00001794        0        0       -1       58       26 
Fe       0.39144591      23.24674290     142.17187545      -0.00037453      -0.00007237      -0.00000646        0        0       -1       58       26 
Fe       1.80710153      25.20007235     141.73786043      -0.00036785      -0.00005754       0.00001800        0        0       -1       58       26 
Fe       0.38908285      25.63437514     143.69288884      -0.00037264      -0.00006477       0.00001527        0        0       -1       58       26 
Fe       1.80476795      27.58787825     143.25911683      -0.00037588      -0.00008557      -0.00000509        0        0       -1       58       26 
Fe       0.38661620      28.02206204     145.21385943      -0.00037826      -0.00006729       0.00002406        0        0       -1       58       26 
Fe       1.80233125      29.97564567     144.77989269      -0.00037071      -0.00006426      -0.00000045        0        0       -1       58       26 
Fe       0.38404869      30.40970758     146.73440680      -0.00037363      -0.00006808       0.00001151        0        0       -1       58       26 
Fe       1.79979646      32.36330033     146.30010593      -0.00038727      -0.00005151       0.00002588        0        0       -1       58       26 
Fe       1.82303256      -0.19682904     128.91826279      -0.00027429      -0.00007522       0.00000850        0        0       -1       58       26 
Fe       0.40600562       0.23772502     130.87419665      -0.00030136      -0.00008011      -0.00000743        0        0       -1       58       26 
Fe       1.82146557       2.18969043     130.43705249      -0.00031186      -0.00006450      -0.00000460        0        0       -1       58       26 
Fe       0.40433496       2.62459645     132.39372989      -0.00033222      -0.00006131       0.00000757        0        0       -1       58       26 
Fe       1.81981889       4.57730114     131.96004447      -0.00031790      -0.00006830      -0.00001546        0        0       -1       58       26 
Fe       0.40257959       5.01231871     133.91627203      -0.00032819      -0.00007870       0.00000690        0        0       -1       58       26 
Fe       1.81809130       6.96593316     133.48486428      -0.00031826      -0.00005985       0.00002115        0        0       -1       58       26 
Fe       0.40073638       7.40074127     135.43989999      -0.00032616      -0.00006430      -0.00001823        0        0       -1       58       26 
Fe       1.81626581       9.35484084     135.00838427      -0.00032185      -0.00008857      -0.00000137        0        0       -1       58       26 
Fe       0.39879595       9.78930375     136.96245681      -0.00033499      -0.00007245       0.00001322        0        0       -1       58       26 
Fe       1.81434804      11.74332115     136.52938137      -0.00033126      -0.00007082       0.00000426        0        0       -1       58       26 
Fe       0.39676462      12.17753369     138.48319659      -0.00035278      -0.00007722       0.00000628        0        0       -1       58       26 
Fe       1.81234736      14.13121797     138.04862030      -0.00034428      -0.00006981       0.00000232        0        0       -1       58       26 
Fe       0.39464441      14.56534236     140.00268715      -0.00036476      -0.00008390       0.00000873        0        0       -1       58       26 
Fe       1.81025693      16.51874431     139.56740179      -0.00035643      -0.00007290       0.00001375        0        0       -1       58       26 