2448
Lattice="16.98 0.0 0.0 0.0 20.40742022 0.0 0.0 0.0 80.55985588" Properties=species:S:1:pos:R:3:force:R:3:map_shift:I:3:n_neighb:I:1:Z:I:1 nneightol=1.2 virial="-64.99679265 -0.28617349 -0.00966166 -0.28617349 -64.96654656 0.01339702 -0.00966166 0.01339702 -19.9133418" energy=-9774.48935734 cutoff=5.3 pbc="T T T"
Fe       0.14352350       0.05398647      60.22743040      -0.00093120      -0.00176020       0.00283520        0        0       -1       52       26 
Fe       0.14055852       2.60827132      61.34744804      -0.00136543      -0.00036248      -0.00286543        0        0       -1       57       26 
Fe       1.55283827       4.65009356      61.39443153       0.00333171       0.00031297      -0.00033037        0        0       -1       52       26 
Fe       0.13678354       4.93412988      63.25024052      -0.00063370      -0.00303638       0.00433448        0        0       -1       54       26 
Fe       1.55161136       6.85095812      62.47234989       0.00715830       0.00076796       0.00000101        0        0       -1       57       26 
Fe       0.13534486       7.27812098      64.56073799       0.00093397       0.00035775       0.00482068        0        0       -1       57       26 
Fe       1.55086406       9.24055115      64.23918761       0.00002812      -0.00035197      -0.00137211        0        0       -1       56       26 
Fe       0.13443820       9.64719543      66.20463184       0.00035323      -0.00492638       0.00345001        0        0       -1       58       26 
Fe       1.55399844       0.65785598      62.02647831       0.00425253       0.00062530       0.00736960        0        0       -1       54       26 
Fe       0.13620280       1.02716101      63.91572638       0.00368431      -0.00016630       0.00321831        0        0       -1       57       26 
Fe       1.55199941       2.95839145      63.44265736      -0.00237751       0.00067892       0.00173787        0        0       -1       58       26 
Fe       0.13519429       3.37288943      65.43895277       0.00089165      -0.00248805       0.00301996        0        0       -1       58       26 
Fe       1.55068361       5.35945905      65.10667325      -0.00206273       0.00205849      -0.00003142        0        0       -1       56       26 
Fe       0.13437281       5.74269716      67.03210314      -0.00133250      -0.00161199       0.00361634        0        0       -1       58       26 
Fe       1.54923995       7.68801910      66.57105732       0.00008718      -0.00406424      -0.00060854        0        0       -1       58       26 
Fe       0.13287104       8.08725393      68.55435492       0.00215045      -0.00338314       0.00188577        0        0       -1       58       26 
Fe       1.54829115      10.04646931      68.17333540       0.00152568       0.00075784      -0.00257755        0        0       -1       58       26 
Fe       1.54952286       1.41461731      65.85206132       0.00304166      -0.00247440       0.00003712        0        0       -1       58       26 
Fe       0.13366397       1.80915109      67.80236994       0.00128612       0.00152448       0.00076129        0        0       -1       58       26 
Fe       1.54917285       3.77217691      67.40644135      -0.00106228       0.00201721      -0.00145028        0        0       -1       58       26 
Fe       0.13295822       4.16723612      69.36834277       0.00079078       0.00335207      -0.00135951        0        0       -1       58       26 
Fe       1.54776701       6.13269069      68.97849345       0.00229770       0.00025193       0.00232840        0        0       -1       58       26 
Fe       1.54828081       2.20398945      69.75911167      -0.00164834       0.00426976       0.00112281        0        0       -1       58       26 
Fe      15.70217817      13.95666913      17.62818922       0.00338454       0.00136279      -0.00010572       -1       -1        0       57       26 
Fe      14.28556959      13.56920030      15.59273893      -0.00122438       0.00220128      -0.00554824       -1       -1        0       58       26 
Fe       0.13742502       8.85374112      62.28904054       0.00366710      -0.00001816      -0.00350562        0        0       -1       57       26 
Fe       0.13295807       0.24065484      70.13988576      -0.00119152      -0.00120314      -0.00005153        0        0       -1       58       26 
Fe       0.13273752       2.59999865      71.71863174      -0.00331783      -0.00048338       0.00398655        0        0       -1       58       26 
Fe       1.54698472       4.56346510      71.32847779       0.00168341      -0.00251046      -0.00020569        0        0       -1       58       26 
Fe       0.13113058       4.95694450      73.28937485       0.00378672      -0.00460192       0.00210542        0        0       -1       58       26 
Fe       1.54617256       6.91915665      72.89338666       0.00213110      -0.00166789       0.00877019        0        0       -1       58       26 
Fe       0.13106936       7.30966013      74.85620329       0.00217718       0.00159273       0.00656056        0        0       -1       58       26 
Fe       1.54600401       9.27143072      74.46195475       0.00315491      -0.00027108      -0.00154717        0        0       -1       58       26 
Fe       0.13129401       9.66256333      76.42721053       0.00143237       0.00311998      -0.00391203        0        0       -1       58       26 
Fe       1.54737759       0.63690874      72.10512148      -0.00132807      -0.00233036      -0.00092896        0        0       -1       58       26 
Fe       0.13159237       1.02976863      74.06931275       0.00045060       0.00019271       0.00133432        0        0       -1       58       26 
Fe       1.54669250       2.99340068      73.68024264       0.00088286      -0.00210295       0.00442362        0        0       -1       58       26 
Fe       0.13174020       3.38468057      75.64345164      -0.00006938      -0.00140754       0.00046737        0        0       -1       58       26 
Fe       1.54651885       5.34759417      75.25181535      -0.00035313      -0.00033252      -0.00037513        0        0       -1       58       26 
Fe       0.13194437       5.73857127      77.21486194      -0.00149077       0.00188696      -0.00282550        0        0       -1       58       26 
Fe       1.54662487       7.70052763      76.82034580      -0.00086201       0.00286962       0.00239250        0        0       -1       58       26 
Fe       0.13176821       8.09337272      78.78459140      -0.00013467      -0.00107473      -0.00161431        0        0       -1       58       26 
Fe       1.54675361      10.05549772      78.39133614      -0.00026926       0.00078410       0.00097943        0        0       -1       58       26 
Fe       1.54648581       1.42124939      76.03291956       0.00103917       0.00127635       0.00651922        0        0       -1       58       26 
Fe       0.13181262       1.81360036      77.99705544       0.00073752       0.00123378       0.00732248        0        0       -1       58       26 
Fe       1.54723385       3.77635919      77.60707923      -0.00270375      -0.00191603      -0.00060801        0        0       -1       58       26 
Fe       0.13211800       4.16809387      79.57097871       0.00010382       0.00469891      -0.00304259        0        0       -1       58       26 
Fe       1.54667969       6.13058686      79.17747928       0.00227764       0.00309222       0.00360635        0        0       -1       58       26 
Fe       1.54714897       2.20658525      79.96221033      -0.00054503      -0.00075414       0.00341719        0        0       -1       58       26 
Fe       0.13192743       6.52658990      70.93355501       0.00116220      -0.00413404       0.00617120        0        0       -1       58       26 
Fe       1.54730460       8.48461878      70.52727854       0.00027641      -0.00328343       0.00038165        0        0       -1       58       26 
Fe       0.13158213       8.87971182      72.49564467       0.00107902      -0.00454641      -0.00117480        0        0       -1       58       26 
Fe       0.13200134       0.24549719      80.35584107       0.00001614      -0.00388092       0.00181343        0        0       -1       58       26 
Fe       0.14960529       2.10067896      58.87349816      -0.00420200      -0.00025915      -0.00131560        0        0       -1       54       26 
Fe       1.56461588       4.01850829      59.23863734      -0.00189119       0.00805721      -0.00268855        0        0       -1       57       26 
Fe       0.15096353       4.52966734      57.36683041      -0.00493441       0.00232752      -0.00188110        0        0       -1       56       26 
Fe       1.56355597       6.45073169      57.90828872      -0.00329185      -0.00133097      -0.00049786        0        0       -1       57       26 
Fe       0.15027724       6.83812623      55.87278887       0.00071765      -0.00205706      -0.00559832        0        0       -1       58       26 
Fe       1.56444313       8.79377205      56.20264791       0.00176554      -0.00202078       0.00037279        0        0       -1       58       26 
Fe       0.15112830       9.19403047      54.22776613      -0.00039948       0.00035615      -0.00085932        0        0       -1       58       26 
Fe       1.56237943       0.16992727      58.32201464       0.00133524      -0.00462073      -0.00208460        0        0       -1       53       26 
Fe       0.14993657       0.58491129      56.45535720      -0.00045825       0.00076897      -0.00139153        0        0       -1       57       26 
Fe       1.56671447       2.55002367      56.91526822      -0.00798047       0.00188970       0.00133392        0        0       -1       56       26 
Fe       0.15231942       2.94204701      54.96934017      -0.00472445       0.00116287       0.00399910        0        0       -1       58       26 
Fe       1.56658461       4.89959868      55.41199377      -0.00133191      -0.00060102      -0.00109205        0        0       -1       58       26 
Fe       0.15216873       5.28209953      53.44595241      -0.00098606       0.00185742      -0.00330178        0        0       -1       58       26 
Fe       1.56652509       7.23136205      53.87146919      -0.00023737       0.00231148      -0.00220730        0        0       -1       58       26 
Fe       0.15232373       7.62360542      51.88803034      -0.00002514      -0.00027208      -0.00172240        0        0       -1       58       26 
Fe       1.56701943       9.58692081      52.25937574       0.00006601       0.00090870      -0.00745008        0        0       -1       58       26 
Fe       1.56626971       0.97281207      54.54357428       0.00008108       0.00201703      -0.00221737        0        0       -1       58       26 
Fe       0.15187018       1.35821884      52.60904015       0.00143440       0.00018695      -0.00200616        0        0       -1       58       26 
Fe       1.56742190       3.32518210      53.01768638      -0.00137930      -0.00248494      -0.00050377        0        0       -1       58       26 
Fe       0.15265063       3.70954784      51.06211797       0.00105851      -0.00491254      -0.00165870        0        0       -1       58       26 
Fe       1.56767203       5.66845673      51.47766015       0.00003954      -0.00337172       0.00068345        0        0       -1       58       26 
Fe       1.56745951       1.74351827      50.66170286       0.00240695      -0.00481150      -0.00146206        0        0       -1       58       26 
Fe       0.14267020       6.16119008      59.96857372       0.00208327       0.00025874       0.00151309        0        0       -1       57       26 
Fe       1.55891811       8.23381450      60.25624512      -0.00287375      -0.00127983       0.00029317        0        0       -1       58       26 
Fe       0.14712779       8.40594806      58.20517182       0.00225312      -0.00445707      -0.00277964        0        0       -1       58       26 
Fe       0.15275495      -0.22739654      50.29351819       0.00125701      -0.00132956      -0.00885060        0        0       -1       58       26 
Fe       0.15372829       2.12589272      48.70693392       0.00022267       0.00209017      -0.00276620        0        0       -1       58       26 
Fe       1.56855662       4.09177585      49.10289514       0.00122678      -0.00235976       0.00116875        0        0       -1       58       26 
Fe       0.15492463       4.47463728      47.14189182      -0.00308822       0.00549404       0.00084743        0        0       -1       58       26 
Fe       1.56968157       6.43686230      47.54286248      -0.00300360       0.00343309       0.00216612        0        0       -1       58       26 
Fe       0.15470979       6.82549216      45.57720827      -0.00179175      -0.00301946       0.00476507        0        0       -1       58       26 
Fe       1.56953123       8.78620756      45.97498362      -0.00079839       0.00170847      -0.00653884        0        0       -1       58       26 
Fe       0.15402221       9.17616708      44.00769390       0.00085606       0.00021884      -0.00139815        0        0       -1       58       26 
Fe       1.56911178       0.15796789      48.32787501      -0.00198909       0.00352708      -0.00341632        0        0       -1       58       26 
Fe       0.15491214       0.54503860      46.36294548      -0.00317560       0.00488002      -0.00427583        0        0       -1       58       26 
Fe       1.56990014       2.51005081      46.74796408      -0.00238915       0.00671090      -0.00241746        0        0       -1       58       26 
Fe       0.15490105       2.89891932      44.78699110      -0.00185257       0.00169646      -0.00415323        0        0       -1       58       26 
Fe       1.57006409       4.86293996      45.18030922      -0.00400082      -0.00015775      -0.00123371        0        0       -1       58       26 
Fe       0.15378445       5.25150828      43.21767654       0.00257842       0.00047374      -0.00251311        0        0       -1       58       26 
Fe       1.56871732       7.21456262      43.61266849       0.00230169      -0.00257596      -0.00115618        0        0       -1       58       26 
Fe       0.15345771       7.60388863      41.64776188       0.00140702       0.00479335      -0.00322270        0        0       -1       58       26 
Fe       1.56866590       9.56524223      42.04108878       0.00142888       0.00651882       0.00211343        0        0       -1       58       26 
Fe       1.56958690       0.93488031      44.39810907      -0.00094826       0.00219176      -0.00529327        0        0       -1       58       26 
Fe       0.15406542       1.32399176      42.43238073       0.00003026       0.00595609       0.00419976        0        0       -1       58       26 
Fe       1.56917720       3.28757724      42.82419173      -0.00011973       0.00442705      -0.00286283        0        0       -1       58       26 
Fe       0.15389699       3.67994239      40.86074256       0.00017077      -0.00194512       0.00203794        0        0       -1       58       26 
Fe       1.56843608       5.64232145      41.25435969       0.00239831      -0.00079080      -0.00101421        0        0       -1       58       26 
Fe       1.56883333       1.71693984      40.46816012       0.00098434       0.00168828       0.00395327        0        0       -1       58       26 
Fe       0.15355186       6.05276058      49.50979626      -0.00050966      -0.00029849       0.00131247        0        0       -1       58       26 
Fe       1.56804216       8.01192459      49.91316683       0.00112670       0.00060536      -0.00285679        0        0       -1       58       26 
Fe       0.15410145       8.39768981      47.94284012      -0.00007044       0.00341171      -0.00444903        0        0       -1       58       26 
Fe       0.14215667      -0.05395503      19.94740202       0.00064539       0.00148536       0.00308755        0        0        0       52       26 
Fe       0.14512043       7.59539980      21.06739451       0.00148283       0.00066345      -0.00283324        0        0        0       57       26 
Fe       1.56293249       5.55356735      21.11434204      -0.00367056      -0.00020843      -0.00008611        0        0        0       52       26 
Fe       0.14891830       5.26963740      22.97019961       0.00039374       0.00288222       0.00404255        0        0        0       54       26 
Fe       1.56403341       3.35279181      22.19232787      -0.00703426      -0.00090569       0.00004952        0        0        0       57       26 
Fe       0.15019546       2.92563396      24.28075677      -0.00054940      -0.00057923       0.00461479        0        0        0       57       26 
Fe       1.56466179       0.96317511      23.95912399       0.00026997       0.00036304      -0.00114613        0        0        0       56       26 
Fe       0.15112076       0.55654579      25.92457362      -0.00021598       0.00501309       0.00356246        0        0        0       58       26 
Fe       1.56161765       9.54586477      21.74644715      -0.00420121      -0.00056139       0.00729723        0        0        0       54       26 
Fe       0.14930647       9.17652683      23.63569598      -0.00307611       0.00049213       0.00333244        0        0        0       57       26 
Fe       1.56361445       7.24535027      23.16254619       0.00242557      -0.00073169       0.00200280        0        0        0       58       26 
Fe       0.15042513       6.83084471      25.15887660      -0.00094155       0.00259065       0.00313046        0        0        0       58       26 
Fe       1.56497314       4.84430557      24.82658877       0.00192566      -0.00219900       0.00053135        0        0        0       56       26 
Fe       0.15131957       4.46105677      26.75208353       0.00094286       0.00192273       0.00344995        0        0        0       58       26 
Fe       1.56635184       2.51574875      26.29106627       0.00003162       0.00381995      -0.00068733        0        0        0       58       26 
Fe       0.15275580       2.11649333      28.27436498      -0.00179564       0.00366419       0.00172666        0        0        0       58       26 
Fe       1.56733141       0.15731147      27.89330740      -0.00143972      -0.00079096      -0.00266728        0        0        0       58       26 
Fe       1.56603886       8.78909149      25.57206842      -0.00289935       0.00274465      -0.00040641        0        0        0       58       26 
Fe       0.15196500       8.39463906      27.52234858      -0.00127381      -0.00160865       0.00077159        0        0        0       58       26 
Fe       1.56644542       6.43161936      27.12640160       0.00134041      -0.00227898      -0.00157610        0        0        0       58       26 
Fe       0.15271013       6.03658430      29.08829566      -0.00036657      -0.00350991      -0.00128011        0        0        0       58       26 
Fe       1.56794303       4.07108836      28.69848529      -0.00232284      -0.00020844       0.00232537        0        0        0       58       26 
Fe       1.56743685       7.99984837      29.47907865       0.00153211      -0.00469327       0.00122450        0        0        0       58       26 
Fe      15.70128580      11.61357912      15.92265110      -0.00176100       0.00209705       0.00043174       -1       -1        0       58       26 
Fe      14.28460578      11.21329312      13.94779571       0.00052047      -0.00014358      -0.00108398       -1       -1        0       58       26 
Fe       0.14821189       1.35002063      22.00901454      -0.00398421      -0.00019710      -0.00361489        0        0        0       57       26 
Fe       0.15275641      20.16683579      29.85987092       0.00123319       0.00129637      -0.00011736        0       -1        0       58       26 
Fe       0.15306442       7.60377737      31.43860697       0.00312441       0.00052429       0.00409526        0        0        0       58       26 
Fe       1.56885092       5.64034472      31.04843151      -0.00203901       0.00230130       0.00008270        0        0        0       58       26 
Fe       0.15473304       5.24681891      33.00938898      -0.00416490       0.00482427       0.00197058        0        0        0       58       26 
Fe       1.56966952       3.28461826      32.61338809      -0.00222761       0.00171171       0.00872720        0        0        0       58       26 
Fe       0.15472294       2.89413390      34.57620753      -0.00188524      -0.00165646       0.00673840        0        0        0       58       26 
Fe       1.56982896       0.93237035      34.18195908      -0.00333752       0.00023785      -0.00160974        0        0        0       58       26 
Fe       0.15456319       0.54122592      36.14722562      -0.00172016      -0.00336780      -0.00373503        0        0        0       58       26 
Fe       1.56840277       9.56685585      31.82508913       0.00129844       0.00244790      -0.00065281        0        0        0       58       26 
Fe       0.15416840       9.17404956      33.78931607      -0.00018948      -0.00045623       0.00139675        0        0        0       58       26 
Fe       1.56908824       7.21038758      33.40024534      -0.00076583       0.00211816       0.00443225        0        0        0       58       26 
Fe       0.15401335       6.81911908      35.36347657       0.00040896       0.00131243       0.00038713        0        0        0       58       26 
Fe       1.56929375       4.85619010      34.97186485       0.00039436       0.00037915      -0.00064413        0        0        0       58       26 
Fe       0.15391637       4.46516716      36.93487800       0.00129292      -0.00191199      -0.00253116        0        0        0       58       26 
Fe       1.56919896       2.50320487      36.54038701       0.00091976      -0.00265341       0.00246804        0        0        0       58       26 
Fe       0.15404519       2.11033619      38.50468001       0.00035374       0.00116039      -0.00201273        0        0        0       58       26 
Fe       1.56910294       0.14820976      38.11139253      -0.00001963      -0.00053555       0.00092425        0        0        0       58       26 
Fe       1.56929044       8.78253524      35.75297062      -0.00087987      -0.00124729       0.00628521        0        0        0       58       26 
Fe       0.15399703       8.39014554      37.71711105      -0.00068906      -0.00139494       0.00726667        0        0        0       58       26 
Fe       1.56857524       6.42738477      37.32710567       0.00284603       0.00189887      -0.00046920        0        0        0       58       26 
Fe       0.15376427       6.03561353      39.29103686      -0.00028930      -0.00467570      -0.00323990        0        0        0       58       26 
Fe       1.56922144       4.07313775      38.89752971      -0.00256974      -0.00313566       0.00337195        0        0        0       58       26 
Fe       1.56867118       7.99710148      39.68226549       0.00068604       0.00095628       0.00337844        0        0        0       58       26 
Fe       0.15390920       3.67720209      30.65355842      -0.00158406       0.00403870       0.00607357        0        0        0       58       26 
Fe       1.56845240       1.71913531      30.24725770      -0.00031609       0.00360322       0.00052621        0        0        0       58       26 
Fe       0.15424908       1.32407118      32.21561659      -0.00130877       0.00445845      -0.00098374        0        0        0       58       26 
Fe       0.15380296      -0.24551470      40.07592170       0.00015492       0.00402507       0.00181271        0        0        0       58       26 
Fe       0.13614206       8.10303545      18.59348262       0.00409414       0.00023774      -0.00146612        0        0        0       54       26 
Fe       1.55117539       6.18522304      18.95858918       0.00158024      -0.00821956      -0.00282550        0        0        0       57       26 
Fe       0.13477013       5.67402859      17.08680249       0.00513795      -0.00229363      -0.00191488        0        0        0       56       26 
Fe       1.55217817       3.75295902      17.62818922       0.00338454       0.00136279      -0.00010572        0        0        0       57       26 
Fe       0.13556959       3.36549019      15.59273893      -0.00122438       0.00220128      -0.00554824        0        0        0       58       26 
Fe       1.55128580       1.40986901      15.92265110      -0.00176100       0.00209705       0.00043174        0        0        0       58       26 
Fe       0.13460578       1.00958301      13.94779571       0.00052047      -0.00014358      -0.00108398        0        0        0       58       26 
Fe       1.55333638      10.03377555      18.04202409      -0.00160584       0.00473507      -0.00213832        0        0        0       53       26 
Fe       0.13571624       9.61875878      16.17541134       0.00084891      -0.00069022      -0.00165083        0        0        0       57       26 
Fe       1.54897536       7.65367422      16.63520820       0.00818944      -0.00214514       0.00178140        0        0        0       56       26 
Fe       0.13340745       7.26160313      14.68931951       0.00479793      -0.00128350       0.00420302        0        0        0       58       26 
Fe       1.54922303       5.30401914      15.13197731       0.00114361       0.00085281      -0.00110858        0        0        0       58       26 
Fe       0.13366191       4.92154978      13.16594669       0.00081430      -0.00196492      -0.00338415        0        0        0       58       26 
Fe       1.54931793       2.97225862      13.59145296      -0.00011276      -0.00222416      -0.00217810        0        0        0       58       26 
Fe       0.13346959       2.58002084      11.60805544       0.00018859       0.00047033      -0.00196928        0        0        0       58       26 
Fe       1.54874624       0.61673281      11.97936944      -0.00003714      -0.00097543      -0.00731264        0        0        0       58       26 
Fe       1.54938472       9.23084387      14.26363703       0.00040755      -0.00208842      -0.00239985        0        0        0       58       26 
Fe       0.13387072       8.84546995      12.32909695      -0.00140019      -0.00045288      -0.00217225        0        0        0       58       26 
Fe       1.54836866       6.87848221      12.73772616       0.00119726       0.00244654      -0.00087440        0        0        0       58       26 
Fe       0.13312373       6.49411061      10.78213959      -0.00088102       0.00481793      -0.00160137        0        0        0       58       26 
Fe       1.54812925       4.53519494      11.19765100       0.00008929       0.00329066       0.00093932        0        0        0       58       26 
Fe       1.54831105       8.46010732      10.38175030      -0.00232126       0.00487105      -0.00166955        0        0        0       58       26 
Fe       0.14312214       4.04248432      19.68851869      -0.00256826      -0.00023721       0.00137115        0        0        0       57       26 
Fe       1.55664020       1.96986564      19.97619575       0.00360798       0.00159843       0.00045529        0        0        0       58       26 
Fe       0.13854218       1.79777846      17.92515328      -0.00207499       0.00419379      -0.00286106        0        0        0       58       26 
Fe       0.13305236      20.63470688      10.01352120      -0.00126743       0.00155509      -0.00880776        0       -1        0       58       26 
Fe       0.13207297       8.07773432       8.42691838       0.00005135      -0.00196941      -0.00235925        0        0        0       58       26 
Fe       1.54726336       6.11187987       8.82290427      -0.00117660       0.00228395       0.00142284        0        0        0       58       26 
Fe       0.13093225       5.72904354       6.86192581       0.00328982      -0.00576177       0.00066300        0        0        0       58       26 
Fe       1.54620367       3.76684462       7.26291984       0.00291034      -0.00381824       0.00205917        0        0        0       58       26 
Fe       0.13119669       3.37818167       5.29727965       0.00184428       0.00277645       0.00472794        0        0        0       58       26 
Fe       1.54639403       1.41741173       5.69502033       0.00072762      -0.00151286      -0.00667647        0        0        0       58       26 
Fe      17.11194521       1.02747695       3.72771705      -0.00122314      -0.00001488      -0.00113370       -1        0        0       58       26 
Fe       1.54672960      10.04565065       8.04789587       0.00206490      -0.00330155      -0.00346025        0        0        0       58       26 
Fe       0.13102062       9.65856722       6.08298227       0.00304566      -0.00468612      -0.00437508        0        0        0       58       26 
Fe       1.54600593       7.69356534       6.46796774       0.00228143      -0.00649375      -0.00243709        0        0        0       58       26 
Fe       0.13108056       7.30470814       4.50701105       0.00152525      -0.00149517      -0.00421678        0        0        0       58       26 
Fe       1.54585026       5.34070905       4.90032555       0.00405827       0.00015918      -0.00115885        0        0        0       58       26 
Fe       0.13215578       4.95219145       2.93767938      -0.00270317      -0.00058914      -0.00207178        0        0        0       58       26 