23928
Lattice="16.98 0.0 0.0 0.0 89.49245778 0.0 0.0 0.0 178.98329304" Properties=species:S:1:pos:R:3:force:R:3:map_shift:I:3:n_neighb:I:1:Z:I:1 nneightol=1.2 virial="-524.63509315 85.78984794 205.86469003 85.78984794 -394.8201056 -75.60088749 205.86469003 -75.60088749 -422.68926245" energy=-95808.63538993 cutoff=5.3 pbc="T T T"
Fe       0.45307930       4.53841475     133.88646910       0.00018124       0.00085516       0.00005808        0        0       -1       55       26 
Fe       0.27389204       2.41175883     135.78171827      -0.00013359       0.00000434      -0.00004544        0        0       -1       57       26 
Fe       1.67801505       4.42851633     135.77155146      -0.00004213      -0.00075798      -0.00093043        0        0       -1       52       26 
Fe       0.09416086       4.61120766     137.65115118      -0.00022805       0.00041137      -0.00048136        0        0       -1       55       26 
Fe       1.23623004       6.61409952     136.91259520       0.00052234      -0.00102471       0.00016170        0        0       -1       58       26 
Fe      -0.04230137       6.93212797     138.99153389       0.00073300       0.00036565      -0.00005497        0        0       -1       57       26 
Fe       1.35282248       8.90014033     138.69916357       0.00075845      -0.00006730      -0.00099285        0        0       -1       56       26 
Fe      -0.02455915       9.28724798     140.61035238       0.00043489       0.00049545       0.00063926        0        0       -1       58       26 
Fe       1.41528523      11.22106792     140.12871395      -0.00001334       0.00031781       0.00096799        0        0       -1       57       26 
Fe      -0.00727241      11.59175595     142.14423776      -0.00001472       0.00075905       0.00126647        0        0       -1       58       26 
Fe       1.41067307      13.55311818     141.79809763      -0.00073836       0.00046466      -0.00014629        0        0       -1       58       26 
Fe      -0.01066899      13.91883202     143.78376477      -0.00057048      -0.00110381       0.00058265        0        0       -1       58       26 
Fe       1.39865945      15.88874072     143.44895445      -0.00087320      -0.00037678       0.00039299        0        0       -1       58       26 
Fe      -0.01501059      16.25105103     145.42017188      -0.00069256       0.00056250       0.00013027        0        0       -1       58       26 
Fe       1.39630600      18.21807541     145.06846165      -0.00047713      -0.00010487      -0.00000288        0        0       -1       58       26 
Fe      -0.01485305      18.58193820     147.04403426      -0.00018559      -0.00022423       0.00002721        0        0       -1       58       26 
Fe       1.39986520      20.55233815     146.70348005       0.00020656      -0.00016168       0.00003287        0        0       -1       58       26 
Fe      -0.01267503      20.91529959     148.67262452       0.00014429      -0.00106373      -0.00035593        0        0       -1       58       26 
Fe       1.40309667      22.88674515     148.32709860       0.00079784       0.00026298      -0.00011092        0        0       -1       58       26 
Fe      -0.01086643      23.24813868     150.29341166      -0.00034891      -0.00003704      -0.00048113        0        0       -1       58       26 
Fe       1.40475045      25.21862055     149.94010741      -0.00003424       0.00000928      -0.00063921        0        0       -1       58       26 
Fe      -0.00974510      25.57976850     151.90694415      -0.00071819      -0.00059420       0.00036538        0        0       -1       58       26 
Fe       1.40534666      27.55003531     151.55086647      -0.00067671      -0.00065829      -0.00006982        0        0       -1       58       26 
Fe      -0.00938743      27.91025404     153.51725402      -0.00073310      -0.00049818      -0.00006085        0        0       -1       58       26 
Fe       1.40537888      29.87940124     153.15626722       0.00041706      -0.00057984       0.00060098        0        0       -1       58       26 
Fe      -0.00961707      30.23871250     155.12373723       0.00041863       0.00025109       0.00089355        0        0       -1       58       26 
Fe       1.40527743      32.20666702     154.75953651      -0.00013808       0.00028254       0.00014381        0        0       -1       58       26 
Fe      -0.00967894      32.56632001     156.72915986      -0.00035408      -0.00000728      -0.00004737        0        0       -1       58       26 
Fe       1.40553819      34.53369328     156.36500963      -0.00066572      -0.00047836       0.00022187        0        0       -1       58       26 
Fe      -0.00966728      34.89354169     158.33605100      -0.00016456      -0.00006483       0.00020684        0        0       -1       58       26 
Fe       1.40546760      36.86099653     157.97413625       0.00038742      -0.00043847       0.00095485        0        0       -1       58       26 
Fe      -0.01002706      37.22071482     159.94578543       0.00025170       0.00057031       0.00037571        0        0       -1       58       26 
Fe       1.40515932      39.18858982     159.58719176       0.00024723       0.00040100      -0.00016000        0        0       -1       58       26 
Fe      -0.01029624      39.54861742     161.55865082      -0.00078338       0.00048022      -0.00014982        0        0       -1       58       26 
Fe       1.40504839      41.51681331     161.20160075      -0.00151749       0.00022591      -0.00098906        0        0       -1       58       26 
Fe      -0.01077850      41.87737260     163.17249851      -0.00098747      -0.00040055      -0.00071720        0        0       -1       58       26 
Fe       1.40437829      43.84584677     162.81616865      -0.00092347      -0.00014253       0.00007091        0        0       -1       58       26 
Fe      -0.01199420      44.20656686     164.78658860      -0.00017872      -0.00032468       0.00068769        0        0       -1       58       26 
Fe       1.69104152       0.42549817     135.84419975       0.00040045       0.00121556      -0.00025118        0        0       -1       60       26 
Fe       0.04059753       0.65980994     138.03626664       0.00063050      -0.00036866       0.00002848        0        0       -1       57       26 
Fe       1.51731396       2.62182883     137.79764337       0.00018882       0.00092207      -0.00029159        0        0       -1       58       26 
Fe       0.03452420       2.99709677     139.77063263       0.00003137       0.00088103      -0.00052571        0        0       -1       58       26 
Fe       1.43893322       5.00016573     139.49764543      -0.00027186       0.00050211      -0.00019465        0        0       -1       57       26 
Fe       0.00206264       5.35146029     141.41461952       0.00010951       0.00035404       0.00074006        0        0       -1       58       26 
Fe       1.39592768       7.31223947     140.98227000       0.00048256       0.00000390       0.00065332        0        0       -1       58       26 
Fe      -0.01220016       7.67539441     142.95296179       0.00029175       0.00039415       0.00070101        0        0       -1       58       26 
Fe       1.40109140       9.64103245     142.56685269       0.00035704       0.00124225       0.00026525        0        0       -1       58       26 
Fe      -0.01121984       9.99945224     144.53459127      -0.00013863      -0.00031740       0.00043548        0        0       -1       58       26 
Fe       1.40495299      11.95667594     144.13886384      -0.00018431       0.00062289       0.00062123        0        0       -1       58       26 
Fe      -0.01091628      12.31994170     146.12404091      -0.00014541       0.00016743      -0.00041282        0        0       -1       58       26 
Fe       1.40296761      14.28321614     145.76523802      -0.00044949      -0.00037393      -0.00021217        0        0       -1       58       26 
Fe      -0.01175472      14.64710631     147.74377366      -0.00011098      -0.00048072      -0.00044984        0        0       -1       58       26 
Fe       1.40175615      16.61416640     147.39356364      -0.00059236      -0.00093564       0.00042902        0        0       -1       58       26 
Fe      -0.01168174      16.97708607     149.36731518      -0.00065761      -0.00040954       0.00070411        0        0       -1       58       26 
Fe       1.40252834      18.94534029     149.01742384      -0.00066961      -0.00061401       0.00001716        0        0       -1       58       26 
Fe      -0.01086176      19.30763210     150.98970462      -0.00073364      -0.00030656       0.00059449        0        0       -1       58       26 
Fe       1.40387561      21.27742444     150.64198871      -0.00008103      -0.00018399      -0.00065579        0        0       -1       58       26 
Fe      -0.01010001      21.63930317     152.61138136      -0.00050124      -0.00092375      -0.00014753        0        0       -1       58       26 
Fe       1.40504141      23.60953439     152.26076035      -0.00069835      -0.00095945      -0.00029064        0        0       -1       58       26 
Fe      -0.00938736      23.97056927     154.22875593      -0.00078322      -0.00134599      -0.00049346        0        0       -1       58       26 
Fe       1.40567095      25.94045670     153.87417094      -0.00070635      -0.00114142       0.00018167        0        0       -1       58       26 
Fe      -0.00917250      26.30037293     155.84205167      -0.00089629      -0.00044721       0.00039148        0        0       -1       58       26 
Fe       1.40565591      28.26984355     155.48461025      -0.00028196      -0.00003491      -0.00026563        0        0       -1       58       26 
Fe      16.97040276      28.62928610     157.45268003       0.00027263       0.00012177      -0.00008411       -1        0       -1       58       26 
Fe       1.40524055      30.59812987     157.09206118       0.00020555       0.00049629       0.00059276        0        0       -1       58       26 
Fe      -0.01005748      30.95754179     159.06093139      -0.00010549       0.00047755       0.00028454        0        0       -1       58       26 
Fe       1.40515612      32.92582869     158.69900666      -0.00080708       0.00009488      -0.00020766        0        0       -1       58       26 
Fe      -0.01016083      33.28532052     160.66892068      -0.00108518       0.00011294      -0.00127420        0        0       -1       58       26 
Fe       1.40491332      35.25309278     160.30689837      -0.00045980       0.00041082       0.00006300        0        0       -1       58       26 
Fe      -0.01056979      35.61308763     162.27763124      -0.00139882       0.00012445      -0.00000348        0        0       -1       58       26 
Fe       1.40450326      37.58072325     161.91717747      -0.00103771       0.00038729      -0.00009850        0        0       -1       58       26 
Fe      -0.01122082      37.94126448     163.88834995      -0.00148177      -0.00044147      -0.00063493        0        0       -1       58       26 
Fe       1.40394536      39.90914507     163.52967994      -0.00121768      -0.00033878      -0.00029179        0        0       -1       58       26 
Fe      -0.01236885      40.26977387     165.50044821      -0.00058277      -0.00045957       0.00083606        0        0       -1       58       26 
Fe       1.40280659      42.23809157     165.14315705       0.00003619      -0.00056024       0.00079068        0        0       -1       58       26 
Fe      -0.01381532      42.59852796     167.11373211       0.00022390      -0.00050100       0.00140810        0        0       -1       58       26 
Fe       1.40147789      44.56706499     166.75706703       0.00024811      -0.00080757       0.00027206        0        0       -1       58       26 
Fe       1.42129874       1.02718967     140.06930791       0.00019364       0.00143856      -0.00006753        0        0       -1       58       26 
Fe      -0.00433760       1.39501032     142.06061077       0.00006366       0.00131346       0.00046408        0        0       -1       58       26 
Fe       1.42210918       3.36747766     141.73224215       0.00002092       0.00089452       0.00084926        0        0       -1       58       26 
Fe      -0.00363293       3.73153070     143.69498885      -0.00008039       0.00041021       0.00117819        0        0       -1       58       26 
Fe       1.40955461       5.70944231     143.35356805      -0.00021140       0.00049715       0.00051834        0        0       -1       58       26 
Fe      -0.00818196       6.06808411     145.30503631      -0.00044543      -0.00063592      -0.00029465        0        0       -1       58       26 
Fe       1.40460567       8.03523547     144.92008394       0.00011132       0.00012399      -0.00005771        0        0       -1       58       26 
Fe      -0.01008445       8.39473168     146.88666632       0.00032323      -0.00009529      -0.00062682        0        0       -1       58       26 
Fe       1.40436118      10.35909328     146.50592138       0.00032106      -0.00069076      -0.00021537        0        0       -1       58       26 
Fe      -0.01049903      10.71961887     148.47799219       0.00062927      -0.00020077      -0.00032053        0        0       -1       58       26 
Fe       1.40408983      12.68271670     148.10389199      -0.00036708      -0.00111810      -0.00036779        0        0       -1       58       26 
Fe      -0.01040779      13.04474000     150.08074101      -0.00077431      -0.00079476      -0.00042385        0        0       -1       58       26 
Fe       1.40405771      15.01004828     149.72038122      -0.00066577       0.00014070      -0.00042350        0        0       -1       58       26 
Fe      -0.01000882      15.37195063     151.69562834      -0.00134726       0.00040236      -0.00022205        0        0       -1       58       26 
Fe       1.40460302      17.33915810     151.34075598      -0.00108494       0.00030837       0.00119227        0        0       -1       58       26 
Fe      -0.00963510      17.70110275     153.31361290      -0.00031319      -0.00023042       0.00111504        0        0       -1       58       26 
Fe       1.40506254      19.66968073     152.96124031      -0.00016752      -0.00092217       0.00088549        0        0       -1       58       26 
Fe      -0.00949437      20.03116896     154.93249658      -0.00011984      -0.00031497       0.00101922        0        0       -1       58       26 
Fe       1.40553847      22.00064537     154.58089254      -0.00080222      -0.00091499       0.00016019        0        0       -1       58       26 
Fe      -0.00912521      22.36103326     156.55063063      -0.00119544      -0.00029339       0.00073271        0        0       -1       58       26 
Fe       1.40590928      24.33071022     156.19732107      -0.00124120      -0.00070472       0.00002195        0        0       -1       58       26 
Fe      -0.00915338      24.69043556     158.16618900      -0.00125746      -0.00011760      -0.00017043        0        0       -1       58       26 
Fe       1.40565155      26.65992745     157.81031791      -0.00054845       0.00020926       0.00059423        0        0       -1       58       26 
Fe      -0.00996279      27.01945340     159.77891539       0.00029827       0.00060053      -0.00035448        0        0       -1       58       26 
Fe       1.40486207      28.98872161     159.42117537       0.00062554       0.00061486      -0.00031776        0        0       -1       58       26 
Fe      -0.01078304      29.34832011     161.38982903       0.00013769       0.00057702      -0.00070170        0        0       -1       58       26 
Fe       1.40450773      31.31704815     161.02998145      -0.00037507       0.00040916      -0.00057329        0        0       -1       58       26 
Fe      -0.01109579      31.67700585     162.99914395      -0.00075701       0.00027780      -0.00010289        0        0       -1       58       26 
Fe       1.40427349      33.64527968     162.63882215      -0.00080901       0.00033344      -0.00004641        0        0       -1       58       26 
Fe      -0.01168478      34.00558199     164.60869399      -0.00055397       0.00032744       0.00140446        0        0       -1       58       26 
Fe       1.40361263      35.97354056     164.24832104      -0.00119937      -0.00012157       0.00020906        0        0       -1       58       26 
Fe      -0.01274054      36.33392570     166.21903549      -0.00036873      -0.00025465      -0.00011697        0        0       -1       58       26 
Fe       1.40247871      38.30179992     165.85936816      -0.00062366      -0.00048962      -0.00060787        0        0       -1       58       26 
Fe      -0.01416387      38.66198595     167.83024692      -0.00003316      -0.00034450      -0.00079860        0        0       -1       58       26 
Fe       1.40101896      40.63008231     167.47111024      -0.00008135      -0.00004135       0.00173128        0        0       -1       58       26 
Fe      -0.01557321      40.98994571     169.44183057       0.00008085      -0.00012766       0.00154440        0        0       -1       58       26 
Fe       1.39967921      42.95848065     169.08433809      -0.00003604      -0.00058044       0.00062277        0        0       -1       58       26 
Fe      -0.01680877      43.31776339     171.05494647      -0.00010810      -0.00036893       0.00046189        0        0       -1       58       26 
Fe       1.40649203       1.75930455     144.03629652       0.00001824       0.00034431       0.00076345        0        0       -1       58       26 
Fe      -0.01003940       2.12236390     146.00593046       0.00006292      -0.00017680      -0.00025031        0        0       -1       58       26 
Fe       1.40721914       4.09421517     145.65764582       0.00027562      -0.00023673       0.00015348        0        0       -1       58       26 
Fe      -0.00937913       4.45536189     147.62107935       0.00082523       0.00024235      -0.00018001        0        0       -1       58       26 
Fe       1.40570282       6.42703708     147.26341952      -0.00043512       0.00011595      -0.00076481        0        0       -1       58       26 
Fe      -0.00964877       6.78674871     149.22552009      -0.00027549      -0.00038917      -0.00052703        0        0       -1       58       26 
Fe       1.40491068       8.75449915     148.85375056       0.00062555      -0.00158202      -0.00036629        0        0       -1       58       26 
Fe      -0.01003451       9.11448744     150.82158626       0.00080981      -0.00133891      -0.00011178        0        0       -1       58       26 
Fe       1.40477090      11.08029651     150.45006351       0.00023577      -0.00037745      -0.00006229        0        0       -1       58       26 
Fe      -0.00987897      11.44038022     152.42203732       0.00017372      -0.00007898      -0.00005545        0        0       -1       58       26 
Fe       1.40520857      13.40587275     152.05580695      -0.00104122       0.00059842       0.00001861        0        0       -1       58       26 
Fe      -0.00932155      13.76678071     154.02948337      -0.00117964       0.00030031       0.00031161        0        0       -1       58       26 
Fe       1.40562532      15.73354909     153.66964451      -0.00132628      -0.00019817      -0.00023641        0        0       -1       58       26 
Fe      -0.00919631      16.09487034     155.64274016      -0.00075865      -0.00088730       0.00006121        0        0       -1       58       26 
Fe       1.40559208      18.06259611     155.28606491       0.00020762      -0.00026701       0.00126163        0        0       -1       58       26 
Fe      -0.00943955      18.42335415     157.25830171      -0.00003796      -0.00047516      -0.00021888        0        0       -1       58       26 
Fe       1.40570836      20.39181257     156.90374383      -0.00057447       0.00016331       0.00050717        0        0       -1       58       26 
Fe      -0.00931502      20.75199737     158.87485399      -0.00109621       0.00015699      -0.00017219        0        0       -1       58       26 
Fe       1.40588792      22.72098733     158.52047709      -0.00156552       0.00016574       0.00077153        0        0       -1       58       26 
Fe      -0.00956653      23.08099411     160.49041378      -0.00118402       0.00041595       0.00026471        0        0       -1       58       26 
Fe       1.40530591      25.05016411     160.13532377      -0.00082899       0.00046806      -0.00057245        0        0       -1       58       26 
Fe      -0.01062035      25.41027230     162.10468627      -0.00031513       0.00061416       0.00022935        0        0       -1       58       26 
Fe       1.40419761      27.37926606     161.74775855       0.00016686       0.00059708      -0.00049367        0        0       -1       58       26 
Fe      -0.01161820      27.73954002     163.71673818      -0.00077416      -0.00004576      -0.00052664        0        0       -1       58       26 
Fe       1.40357081      29.70837657     163.35854234      -0.00075047      -0.00006245      -0.00019428        0        0       -1       58       26 
Fe      -0.01224664      30.06871614     165.32754379      -0.00116405      -0.00013525       0.00114229        0        0       -1       58       26 
Fe       1.40302575      32.03729991     164.96858148      -0.00087826      -0.00005544       0.00054271        0        0       -1       58       26 
Fe      -0.01319428      32.39758504     166.93836012      -0.00073675      -0.00076483      -0.00045704        0        0       -1       58       26 
Fe       1.40199133      34.36586282     166.57877292      -0.00044682      -0.00035939       0.00037809        0        0       -1       58       26 
Fe      -0.01456042      34.72581403     168.54889423      -0.00026607      -0.00082965       0.00015143        0        0       -1       58       26 
Fe       1.40062040      36.69397535     168.18968803       0.00002656      -0.00059387      -0.00046039        0        0       -1       58       26 
Fe      -0.01608016      37.05352092     170.16013668       0.00018147      -0.00083093      -0.00106091        0        0       -1       58       26 
Fe       1.39916943      39.02174392     169.80097028       0.00016494      -0.00049589      -0.00069936        0        0       -1       58       26 
Fe      -0.01753430      39.38085613     171.77153966       0.00006233      -0.00041852       0.00077811        0        0       -1       58       26 
Fe       1.39781633      41.34919975     171.41265441       0.00008093      -0.00049484       0.00093542        0        0       -1       58       26 
Fe      -0.01897673      41.70776036     173.38358697      -0.00060631      -0.00056706      -0.00019397        0        0       -1       58       26 
Fe       1.39648273      43.67634623     173.02560155      -0.00047872       0.00002823       0.00056374        0        0       -1       58       26 
Fe      -0.02057908      44.03449975     174.99640310      -0.00122419       0.00026044      -0.00059969        0        0       -1       58       26 
Fe       1.40176244       0.15201006     146.36266425       0.00061465      -0.00020635      -0.00017412        0        0       -1       58       26 
Fe      -0.01190333       0.51363070     148.32709860       0.00079784       0.00026298      -0.00011092        0        0       -1       58       26 
Fe       1.40456322       2.48414987     147.97334409       0.00014749       0.00012381      -0.00028100        0        0       -1       58       26 
Fe      -0.01024955       2.84550610     149.94010741      -0.00003424       0.00000928      -0.00063921        0        0       -1       58       26 
Fe       1.40517739       4.81623198     149.58543394       0.00033680      -0.00065606      -0.00050872        0        0       -1       58       26 
Fe      -0.00965334       5.17692086     151.55086647      -0.00067671      -0.00065829      -0.00006982        0        0       -1       58       26 
Fe       1.40532352       7.14673384     151.19002830       0.00017824      -0.00088768       0.00006802        0        0       -1       58       26 
Fe      -0.00962112       7.50628679     153.15626722       0.00041706      -0.00057984       0.00060098        0        0       -1       58       26 
Fe       1.40509726       9.47406766     152.79027268       0.00046782      -0.00000072      -0.00016890        0        0       -1       58       26 
Fe      -0.00972257       9.83355258     154.75953651      -0.00013808       0.00028254       0.00014381        0        0       -1       58       26 
Fe       1.40541573      11.80039611     154.39371756      -0.00035618      -0.00007913       0.00017849        0        0       -1       58       26 
Fe      -0.00946181      12.16057883     156.36500963      -0.00066572      -0.00047836       0.00022187        0        0       -1       58       26 
Fe       1.40578697      14.12760596     156.00214269      -0.00049661      -0.00068842       0.00086876        0        0       -1       58       26 
Fe      -0.00953240      14.48788208     157.97413625       0.00038742      -0.00043847       0.00095485        0        0       -1       58       26 
Fe       1.40557895      16.45552642     157.61520424       0.00020048      -0.00064575      -0.00004358        0        0       -1       58       26 
Fe      -0.00984068      16.81547538     159.58719177       0.00024723       0.00040100      -0.00016000        0        0       -1       58       26 
Fe       1.40539405      18.78355116     159.23025124      -0.00079871       0.00008851      -0.00096927        0        0       -1       58       26 
Fe      -0.00995161      19.14369886     161.20160075      -0.00151749       0.00022591      -0.00098906        0        0       -1       58       26 
Fe       1.40529508      21.11217621     160.84564844      -0.00132137       0.00001619      -0.00074182        0        0       -1       58       26 
Fe      -0.01062171      21.47273232     162.81616865      -0.00092347      -0.00014253       0.00007091        0        0       -1       58       26 
Fe       1.40444644      23.44141336     162.46049120      -0.00035298       0.00027583       0.00015099        0        0       -1       58       26 
Fe      -0.01185765      23.80210081     164.43063200      -0.00002148      -0.00018666      -0.00034130        0        0       -1       58       26 
Fe       1.40328874      25.77080768     164.07422648      -0.00022219       0.00001945      -0.00034300        0        0       -1       58       26 
Fe      -0.01285591      26.13134623     166.04387921      -0.00047037      -0.00041200      -0.00083438        0        0       -1       58       26 
Fe       1.40248906      28.10001479     165.68597119      -0.00115068      -0.00020617       0.00035794        0        0       -1       58       26 
Fe      -0.01363314      28.46038188     167.65546529      -0.00122330      -0.00031591       0.00128848        0        0       -1       58       26 
Fe       1.40162687      30.42901885     167.29697559      -0.00122747      -0.00032645       0.00148884        0        0       -1       58       26 
Fe      -0.01475664      30.78895406     169.26674654      -0.00117167      -0.00082628       0.00042331        0        0       -1       58       26 
Fe       1.40033072      32.75749598     168.90818064      -0.00066872      -0.00100127      -0.00068587        0        0       -1       58       26 
Fe      -0.01634100      33.11671909     170.87809087      -0.00041854      -0.00082164      -0.00028029        0        0       -1       58       26 
Fe       1.39874625      35.08515783     170.51900184      -0.00003520      -0.00092494      -0.00027536        0        0       -1       58       26 
Fe      -0.01807205      35.44378598     172.48938470      -0.00015682      -0.00051028      -0.00040514        0        0       -1       58       26 
Fe       1.39715484      37.41235422     172.13049535      -0.00004427      -0.00030014      -0.00071521        0        0       -1       58       26 
Fe      -0.01977533      37.77054119     174.10087842      -0.00077477       0.00016561       0.00060348        0        0       -1       58       26 
Fe       1.39559481      39.73923429     173.74215920      -0.00072717      -0.00022648       0.00163231        0        0       -1       58       26 
Fe      -0.02158676      40.09716870     175.71292986      -0.00128448      -0.00010769       0.00065889        0        0       -1       58       26 
Fe       1.39390837      42.06582071     175.35450220      -0.00141801      -0.00011877      -0.00098673        0        0       -1       58       26 
Fe      -0.02355661      42.42380144     177.32528846      -0.00100039       0.00063878      -0.00022422        0        0       -1       58       26 
Fe       1.39199861      44.39257025     176.96713221      -0.00128936       0.00053538      -0.00129716        0        0       -1       58       26 
Fe       1.40413357       0.87502424     150.29341166      -0.00034891      -0.00003704      -0.00048113        0        0       -1       58       26 
Fe      -0.00995859       1.23641995     152.26076035      -0.00069835      -0.00095945      -0.00029064        0        0       -1       58       26 
Fe       1.40525490       3.20665406     151.90694415      -0.00071819      -0.00059420       0.00036538        0        0       -1       58       26 
Fe      -0.00932905       3.56734226     153.87417094      -0.00070635      -0.00114142       0.00018167        0        0       -1       58       26 