19344
Lattice="16.98 0.0 0.0 0.0 80.44371448 0.0 0.0 0.0 160.89168292" Properties=species:S:1:pos:R:3:force:R:3:map_shift:I:3:n_neighb:I:1:Z:I:1 nneightol=1.2 virial="-358.77141196 -94.22525826 -0.00361421 -94.22525826 -234.19134056 0.1165481 -0.00361421 0.1165481 -391.09595641" energy=-77477.08679248 cutoff=5.3 pbc="T T T"
Fe      15.51877724      51.56963716      32.88543728       0.00012606      -0.00016938      -0.00001134       -1       -1        0       58       26 
Fe       0.23504090       2.21188014     122.26103510       0.00005410       0.00005514      -0.00018904        0        0       -1       58       26 
Fe       1.67561660       4.21089567     122.19589069       0.00000348       0.00005162      -0.00005410        0        0       -1       56       26 
Fe       0.13917442       4.34919450     124.18239839      -0.00007598       0.00015995       0.00004597        0        0       -1       58       26 
Fe       1.52343587       6.34202153     124.07003611      -0.00008517       0.00017545       0.00026532        0        0       -1       56       26 
Fe       0.04897248       6.58486603     125.96690880      -0.00013859       0.00023256       0.00019213        0        0       -1       57       26 
Fe       1.40053344       8.54549699     125.56774724      -0.00014802       0.00023601       0.00036800        0        0       -1       57       26 
Fe      -0.00738888       8.74908859     127.61225784      -0.00017734       0.00025787       0.00037893        0        0       -1       58       26 
Fe       1.38086532      10.72263344     127.39235796      -0.00017696       0.00024931       0.00033281        0        0       -1       58       26 
Fe      -0.01994372      10.92789381     129.42021204      -0.00019968       0.00020126       0.00031502        0        0       -1       58       26 
Fe       1.38537419      12.91297461     129.25440564      -0.00020436       0.00020465       0.00019674        0        0       -1       58       26 
Fe      -0.01702531      13.11813968     131.26114223      -0.00023142       0.00008195       0.00017435        0        0       -1       58       26 
Fe       1.39779563      15.11105098     131.10521259      -0.00023894       0.00009020       0.00003348        0        0       -1       58       26 
Fe      -0.00959043      15.31448023     133.09590567      -0.00024562      -0.00004946       0.00000202        0        0       -1       58       26 
Fe       1.40874906      17.31091735     132.92518219      -0.00024115      -0.00003976      -0.00010973        0        0       -1       58       26 
Fe      -0.00337537      17.51194522     134.90859316      -0.00021546      -0.00015522      -0.00012409        0        0       -1       58       26 
Fe       1.41481642      19.50726165     134.71542225      -0.00020097      -0.00015008      -0.00012891        0        0       -1       58       26 
Fe      -0.00004599      19.70687470     136.70068855      -0.00017044      -0.00019141      -0.00013807        0        0       -1       58       26 
Fe       1.41664910      21.69967353     136.49619311      -0.00015619      -0.00019759      -0.00006186        0        0       -1       58       26 
Fe       0.00093212      21.89910139     138.48562033      -0.00013618      -0.00016135      -0.00006840        0        0       -1       58       26 
Fe       1.41637323      23.89075572     138.28022842      -0.00012417      -0.00017158       0.00003357        0        0       -1       58       26 
Fe       0.00079290      24.09010386     140.27136146      -0.00011160      -0.00009153       0.00001656        0        0       -1       58       26 
Fe       1.41561302      26.08103592     140.06549275      -0.00010151      -0.00009817       0.00010362        0        0       -1       58       26 
Fe       0.00041572      26.28041270     142.05810208      -0.00009552      -0.00001669       0.00006488        0        0       -1       58       26 
Fe       1.41509966      28.27065349     141.85256770      -0.00009201      -0.00001663       0.00008770        0        0       -1       58       26 
Fe       0.00017964      28.47031374     143.84685431      -0.00010046       0.00002550       0.00003139        0        0       -1       58       26 
Fe       1.41495186      30.46028134     143.64407385      -0.00010332       0.00003635       0.00000654        0        0       -1       58       26 
Fe       0.00012932      30.66029869     145.63915784      -0.00011917       0.00002134      -0.00005016        0        0       -1       58       26 
Fe       1.41502495      32.65058487     145.44002852      -0.00011542       0.00003290      -0.00010682        0        0       -1       58       26 
Fe       0.00017184      32.85081665     147.43471244      -0.00013258      -0.00003201      -0.00014303        0        0       -1       58       26 
Fe       1.41515436      34.84162260     147.23781868      -0.00012857      -0.00002398      -0.00017685        0        0       -1       58       26 
Fe       0.00021665      35.04184864     149.23152528      -0.00015488      -0.00010238      -0.00017936        0        0       -1       58       26 
Fe       1.41524192      37.03309569     149.03493655      -0.00015703      -0.00010213      -0.00018974        0        0       -1       58       26 
Fe       0.00020558      37.23312332     151.02776171      -0.00018798      -0.00015900      -0.00016707        0        0       -1       58       26 
Fe       1.41524093      39.22457487     150.83024794      -0.00019049      -0.00016743      -0.00015890        0        0       -1       58       26 
Fe       0.00010552      39.42431261     152.82259726      -0.00021024      -0.00017895      -0.00011801        0        0       -1       58       26 
Fe       1.57738244       0.23234076     122.41699329       0.00008261       0.00007388      -0.00027241        0        0       -1       59       26 
Fe       0.06233664       0.39362921     124.50281843      -0.00012085       0.00017542      -0.00018429        0        0       -1       57       26 
Fe       1.53476560       2.36666313     124.30484806      -0.00009010       0.00016709      -0.00011680        0        0       -1       59       26 
Fe       0.06448278       2.57481991     126.31922174      -0.00013559       0.00025734      -0.00008798        0        0       -1       58       26 
Fe       1.48784670       4.57069073     126.15847958      -0.00012870       0.00024047       0.00004588        0        0       -1       58       26 
Fe       0.03747145       4.77495978     128.13450968      -0.00016451       0.00024523       0.00010528        0        0       -1       58       26 
Fe       1.43774761       6.77394983     127.92076952      -0.00016832       0.00024422       0.00027138        0        0       -1       58       26 
Fe       0.01042209       6.96763866     129.89703545      -0.00018898       0.00017417       0.00027001        0        0       -1       58       26 
Fe       1.40990893       8.94877554     129.63478033      -0.00019205       0.00019429       0.00035761        0        0       -1       58       26 
Fe      -0.00371825       9.14872774     131.64656951      -0.00020284       0.00004819       0.00033448        0        0       -1       58       26 
Fe       1.40314706      11.13148679     131.43701758      -0.00021541       0.00006833       0.00029520        0        0       -1       58       26 
Fe      -0.00708231      11.33413599     133.44656473      -0.00021581      -0.00007544       0.00025573        0        0       -1       58       26 
Fe       1.40523538      13.32204508     133.26409111      -0.00023311      -0.00006095       0.00014231        0        0       -1       58       26 
Fe      -0.00557405      13.52492439     135.26420516      -0.00021575      -0.00015891       0.00009437        0        0       -1       58       26 
Fe       1.40966788      15.51702191     135.08735464      -0.00021964      -0.00015557      -0.00003270        0        0       -1       58       26 
Fe      -0.00291866      15.71887253     137.07929490      -0.00019002      -0.00017745      -0.00007947        0        0       -1       58       26 
Fe       1.41321914      17.71270906     136.89487468      -0.00018235      -0.00018259      -0.00014691        0        0       -1       58       26 
Fe      -0.00088141      17.91317039     138.88314719      -0.00015652      -0.00013097      -0.00017509        0        0       -1       58       26 
Fe       1.41505373      19.90655506     138.68803038      -0.00014692      -0.00014812      -0.00015263        0        0       -1       58       26 
Fe       0.00014411      20.10623141     140.67683673      -0.00013323      -0.00006626      -0.00016932        0        0       -1       58       26 
Fe       1.41559692      22.09851348     140.47557139      -0.00012555      -0.00008084      -0.00008188        0        0       -1       58       26 
Fe       0.00045729      22.29798259     142.46605722      -0.00011730      -0.00000933      -0.00009502        0        0       -1       58       26 
Fe       1.41554032      24.28949263     142.26282245      -0.00010701      -0.00001580      -0.00000297        0        0       -1       58       26 
Fe       0.00044321      24.48898670     144.25458088      -0.00010783       0.00000923      -0.00002142        0        0       -1       58       26 
Fe       1.41536196      26.47992210     144.05090791      -0.00010207       0.00001295       0.00002517        0        0       -1       58       26 
Fe      16.98035904      26.67953866     146.04381633      -0.00012313      -0.00001285      -0.00001154       -1        0       -1       58       26 
Fe       1.41525484      28.67006758     145.84091268      -0.00012151       0.00000335      -0.00001810        0        0       -1       58       26 
Fe       0.00029396      28.86987824     147.83475244      -0.00014812      -0.00006170      -0.00005523        0        0       -1       58       26 
Fe       1.41522527      30.86032328     147.63373083      -0.00013992      -0.00004640      -0.00009139        0        0       -1       58       26 
Fe       0.00024013      31.06029688     149.62791325      -0.00016243      -0.00011905      -0.00011710        0        0       -1       58       26 
Fe       1.41521690      33.05095564     149.42894803      -0.00015628      -0.00010958      -0.00015793        0        0       -1       58       26 
Fe       0.00016632      33.25093386     151.42285869      -0.00018044      -0.00015465      -0.00015644        0        0       -1       58       26 
Fe       1.41517839      35.24189919     151.22502688      -0.00018287      -0.00015467      -0.00016512        0        0       -1       58       26 
Fe       0.00003949      35.44172813     153.21839268      -0.00020040      -0.00015742      -0.00014244        0        0       -1       58       26 
Fe       1.41507011      37.43293592     153.02061055      -0.00020481      -0.00016650      -0.00013526        0        0       -1       58       26 
Fe      -0.00016664      37.63253416     155.01348872      -0.00020604      -0.00013173      -0.00009718        0        0       -1       58       26 
Fe       1.41487180      39.62385134     154.81507560      -0.00021075      -0.00014466      -0.00007118        0        0       -1       58       26 
Fe      -0.00046030      39.82322728     156.80765818      -0.00019753      -0.00009289      -0.00002183        0        0       -1       58       26 
Fe       1.44849453       0.59185989     126.52914993      -0.00015790       0.00026644      -0.00013944        0        0       -1       58       26 
Fe       0.01871493       0.79125094     128.53287398      -0.00018849       0.00023785      -0.00012821        0        0       -1       58       26 
Fe       1.44972556       2.77967870     128.32044281      -0.00017238       0.00024209      -0.00005265        0        0       -1       58       26 
Fe       0.01847022       2.98089856     130.31551080      -0.00019669       0.00013977      -0.00002320        0        0       -1       58       26 
Fe       1.43405045       4.97415573     130.11649398      -0.00018722       0.00015269       0.00012554        0        0       -1       58       26 
Fe       0.00953452       5.17321262     132.10248299      -0.00019389       0.00000300       0.00014558        0        0       -1       58       26 
Fe       1.41955628       7.16428801     131.88383801      -0.00019371       0.00002133       0.00027941        0        0       -1       58       26 
Fe       0.00184019       7.36251052     133.87545864      -0.00018692      -0.00011431       0.00025894        0        0       -1       58       26 
Fe       1.41232653       9.34885497     133.65228710      -0.00019715      -0.00009465       0.00030045        0        0       -1       58       26 
Fe      -0.00182521       9.54909389     135.65426957      -0.00017455      -0.00017559       0.00025467        0        0       -1       58       26 
Fe       1.41080276      11.53607963     135.45118802      -0.00019675      -0.00016698       0.00021031        0        0       -1       58       26 
Fe      -0.00243969      11.73748199     137.45244603      -0.00016780      -0.00017368       0.00014755        0        0       -1       58       26 
Fe       1.41187338      13.72701987     137.26228781      -0.00018722      -0.00017536       0.00004110        0        0       -1       58       26 
Fe      -0.00168757      13.92839533     139.25894916      -0.00015935      -0.00010521      -0.00002144        0        0       -1       58       26 
Fe       1.41346747      15.92007862     139.07157800      -0.00016430      -0.00011843      -0.00012262        0        0       -1       58       26 
Fe      -0.00072674      16.12083499     141.06407755      -0.00014280      -0.00002903      -0.00016559        0        0       -1       58       26 
Fe       1.41464312      18.11340734     140.87278636      -0.00014163      -0.00005102      -0.00019995        0        0       -1       58       26 
Fe      -0.00004360      18.31354048     142.86333525      -0.00012922       0.00001245      -0.00021975        0        0       -1       58       26 
Fe       1.41522853      20.30594257     142.66667808      -0.00012837      -0.00000129      -0.00018307        0        0       -1       58       26 
Fe       0.00029263      20.50571502     144.65726696      -0.00011978       0.00001054      -0.00019040        0        0       -1       58       26 
Fe       1.41541157      22.49755978     144.45701899      -0.00011459       0.00000681      -0.00010591        0        0       -1       58       26 
Fe       0.00039529      22.69723587     146.44837789      -0.00012412      -0.00003509      -0.00010920        0        0       -1       58       26 
Fe       1.41540957      24.68858974     146.24658453      -0.00012418      -0.00002693      -0.00003695        0        0       -1       58       26 
Fe       0.00037939      24.88825695     148.23878060      -0.00015465      -0.00009715      -0.00004816        0        0       -1       58       26 
Fe       1.41535233      26.87922987     148.03676415      -0.00015473      -0.00008044      -0.00003803        0        0       -1       58       26 
Fe       0.00030185      27.07892023     150.02971690      -0.00018078      -0.00014537      -0.00005609        0        0       -1       58       26 
Fe       1.41527356      29.06968314     149.82839663      -0.00017232      -0.00013210      -0.00007649        0        0       -1       58       26 
Fe       0.00017645      29.26938817     151.82187799      -0.00018877      -0.00016307      -0.00008790        0        0       -1       58       26 
Fe       1.41516747      31.26014471     151.62179520      -0.00018241      -0.00015775      -0.00012575        0        0       -1       58       26 
Fe       0.00000167      31.45981526     153.61545124      -0.00019719      -0.00014657      -0.00012279        0        0       -1       58       26 
Fe       1.41501617      33.45070810     153.41653240      -0.00019663      -0.00014996      -0.00014019        0        0       -1       58       26 
Fe      -0.00023502      33.65028611     155.41004077      -0.00020175      -0.00010985      -0.00011617        0        0       -1       58       26 
Fe       1.41479678      35.64134235     155.21166777      -0.00020232      -0.00011913      -0.00011114        0        0       -1       58       26 
Fe      -0.00054667      35.84079227     157.20489189      -0.00019204      -0.00006975      -0.00007480        0        0       -1       58       26 
Fe       1.41449607      37.83196157     157.00639864      -0.00019389      -0.00008054      -0.00005096        0        0       -1       58       26 
Fe      -0.00093500      38.03127883     158.99934950      -0.00017036      -0.00003694      -0.00000013        0        0       -1       58       26 
Fe       1.41411500      40.02249405     158.80032785      -0.00017336      -0.00004597       0.00002773        0        0       -1       58       26 
Fe       1.42541166       0.99067289     130.52732221      -0.00021270       0.00012266      -0.00010599        0        0       -1       58       26 
Fe       0.00569530       1.18992012     132.51790358      -0.00020822      -0.00001021      -0.00008935        0        0       -1       58       26 
Fe       1.42468652       3.18107646     132.30771016      -0.00019315      -0.00001030       0.00000353        0        0       -1       58       26 
Fe       0.00502066       3.38084109     134.29871369      -0.00017640      -0.00013730       0.00002084        0        0       -1       58       26 
Fe       1.41968350       5.37233909     134.09119767      -0.00017864      -0.00013136       0.00015146        0        0       -1       58       26 
Fe       0.00228097       5.57155516     136.08169241      -0.00015260      -0.00019555       0.00014686        0        0       -1       58       26 
Fe       1.41564934       7.56147927     135.86912445      -0.00016021      -0.00018919       0.00023343        0        0       -1       58       26 
Fe       0.00018924       7.76077765     137.86354295      -0.00012466      -0.00017997       0.00019236        0        0       -1       58       26 
Fe       1.41383300       9.74929258     137.65382035      -0.00014248      -0.00017874       0.00020312        0        0       -1       58       26 
Fe      -0.00067204       9.94935751     139.65169770      -0.00011636      -0.00010568       0.00013652        0        0       -1       58       26 
Fe       1.41365196      11.93838243     139.45136424      -0.00014271      -0.00010377       0.00008198        0        0       -1       58       26 
Fe      -0.00066821      12.13896233     141.44865658      -0.00012105      -0.00000948       0.00000968        0        0       -1       58       26 
Fe       1.41416634      14.12929555     141.25458327      -0.00013556      -0.00001522      -0.00007850        0        0       -1       58       26 
Fe      -0.00032515      14.32992174     143.24948896      -0.00011619       0.00004108      -0.00012710        0        0       -1       58       26 
Fe       1.41474877      16.32136492     143.05670245      -0.00012525       0.00003006      -0.00019502        0        0       -1       58       26 
Fe       0.00002427      16.52172075     145.04941425      -0.00011543       0.00002666      -0.00020944        0        0       -1       58       26 
Fe       1.41514532      18.51362593     144.85451799      -0.00012074       0.00001812      -0.00022639        0        0       -1       58       26 
Fe       0.00024631      18.71370464     146.84614934      -0.00012510      -0.00003512      -0.00021953        0        0       -1       58       26 
Fe       1.41533152      20.70555641     146.64839881      -0.00012427      -0.00003892      -0.00018583        0        0       -1       58       26 
Fe       0.00033033      20.90541279     148.63993527      -0.00015233      -0.00011657      -0.00016578        0        0       -1       58       26 
Fe       1.41537085      22.89696384     148.44005359      -0.00015493      -0.00011135      -0.00010248        0        0       -1       58       26 
Fe       0.00030192      23.09665519     150.43197948      -0.00018874      -0.00017471      -0.00008885        0        0       -1       58       26 
Fe       1.41531354      25.08791454     150.23111938      -0.00018730      -0.00016201      -0.00005390        0        0       -1       58       26 
Fe       0.00018035      25.28747340     152.22356325      -0.00020447      -0.00018318      -0.00005673        0        0       -1       58       26 
Fe       1.41518327      27.27852436     152.02265372      -0.00019633      -0.00017276      -0.00006334        0        0       -1       58       26 
Fe      -0.00001883      27.47798871     154.01556475      -0.00020466      -0.00015292      -0.00006268        0        0       -1       58       26 
Fe       1.41499148      29.46894393     153.81522182      -0.00019901      -0.00014781      -0.00009045        0        0       -1       58       26 
Fe      -0.00028682      29.66835279     155.80845108      -0.00020416      -0.00010593      -0.00008642        0        0       -1       58       26 
Fe       1.41473746      31.65931579     155.60893416      -0.00020201      -0.00010479      -0.00010980        0        0       -1       58       26 
Fe      -0.00062439      31.85869136     157.60228801      -0.00019417      -0.00006141      -0.00009089        0        0       -1       58       26 
Fe       1.41441327      33.84971629     157.40343428      -0.00019287      -0.00006292      -0.00008773        0        0       -1       58       26 
Fe      -0.00103189      34.04905782     159.39675654      -0.00016993      -0.00002921      -0.00005929        0        0       -1       58       26 
Fe       1.41401612      36.04013842     159.19809581      -0.00016987      -0.00003056      -0.00003585        0        0       -1       58       26 
Fe       1.41805537       1.38929610     134.50713022      -0.00018186      -0.00013696      -0.00007123        0        0       -1       58       26 
Fe       0.00164582       1.58872731     136.49619612      -0.00015570      -0.00019054      -0.00006382        0        0       -1       58       26 
Fe       1.41759364       3.58039564     136.28942102      -0.00015131      -0.00019657       0.00003025        0        0       -1       58       26 
Fe       0.00137529       3.77981952     138.28025354      -0.00012644      -0.00017032       0.00002646        0        0       -1       58       26 
Fe       1.41612977       5.77082925     138.07328580      -0.00012122      -0.00017939       0.00012721        0        0       -1       58       26 
Fe       0.00061600       5.97010777     140.06553053      -0.00010075      -0.00010231       0.00009782        0        0       -1       58       26 
Fe       1.41507253       7.96019378     139.85812034      -0.00009899      -0.00010700       0.00014078        0        0       -1       58       26 
Fe       0.00010184       8.15972882     141.85261134      -0.00009614      -0.00001839       0.00007847        0        0       -1       58       26 
Fe       1.41469216      10.14935809     141.64836198      -0.00010502      -0.00001380       0.00006665        0        0       -1       58       26 
Fe      -0.00005131      10.34935934     143.64411806      -0.00010501       0.00003366      -0.00000161        0        0       -1       58       26 
Fe       1.41475693      12.33936796     143.44478133      -0.00010946       0.00004126      -0.00005520        0        0       -1       58       26 
Fe       0.00001434      12.53966633     145.44006967      -0.00010941       0.00002726      -0.00010936        0        0       -1       58       26 
Fe       1.41497735      14.53036596     145.24386722      -0.00011184       0.00003357      -0.00015844        0        0       -1       58       26 
Fe       0.00014043      14.73070667     147.23785578      -0.00012346      -0.00002931      -0.00017757        0        0       -1       58       26 
Fe       1.41517506      16.72199771     147.04217401      -0.00012453      -0.00003035      -0.00020584        0        0       -1       58       26 
Fe       0.00022756      16.92218083     149.03496857      -0.00015029      -0.00010701      -0.00019219        0        0       -1       58       26 
Fe       1.41527683      18.91374142     148.83809673      -0.00015145      -0.00011377      -0.00019803        0        0       -1       58       26 
Fe       0.00023003      19.11365815     150.83027184      -0.00018516      -0.00017086      -0.00016308        0        0       -1       58       26 
Fe       1.41527175      21.10519903     150.63177454      -0.00018912      -0.00017741      -0.00013279        0        0       -1       58       26 
Fe       0.00013356      21.30483752     152.62384287      -0.00020994      -0.00018963      -0.00009392        0        0       -1       58       26 
Fe       1.41516368      23.29622937     152.42409858      -0.00020933      -0.00019158      -0.00007096        0        0       -1       58       26 
Fe      -0.00006114      23.49564928     154.41636247      -0.00021333      -0.00016077      -0.00004890        0        0       -1       58       26 
Fe       1.41496432      25.48689186     154.21607877      -0.00020944      -0.00015881      -0.00005316        0        0       -1       58       26 
Fe      -0.00034216      25.68617892     156.20863564      -0.00020681      -0.00011120      -0.00003851        0        0       -1       58       26 
Fe       1.41468751      27.67732005     156.00844082      -0.00020566      -0.00010867      -0.00005539        0        0       -1       58       26 
Fe      -0.00069928      27.87655726     158.00127351      -0.00019298      -0.00006566      -0.00004252        0        0       -1       58       26 
Fe       1.41433884      29.86765564     157.80158177      -0.00019470      -0.00006321      -0.00007570        0        0       -1       58       26 
Fe      -0.00112599      30.06689997     159.79462730      -0.00016665      -0.00003385      -0.00005862        0        0       -1       58       26 
Fe       1.41392122      32.05799446     159.59554648      -0.00016947      -0.00003165      -0.00006946        0        0       -1       58       26 
Fe       1.41592945       1.78815763     138.48562238      -0.00013481      -0.00015653      -0.00006870        0        0       -1       58       26 
Fe       0.00059575       1.98757164     140.47557025      -0.00012550      -0.00007848      -0.00007800        0        0       -1       58       26 
Fe       1.41579356       3.97916876     140.27138437      -0.00011200      -0.00009308       0.00001081        0        0       -1       58       26 
Fe       0.00054010       4.17855624     142.26284109      -0.00010949      -0.00001724      -0.00000473        0        0       -1       58       26 
Fe       1.41541619       6.16948332     142.05813743      -0.00009849      -0.00002100       0.00005778        0        0       -1       58       26 
Fe       0.00035906       6.36898849     144.05093901      -0.00010592       0.00001339       0.00001928        0        0       -1       58       26 
Fe       1.41517643       8.35938761     143.84689474      -0.00010417       0.00002118       0.00002303        0        0       -1       58       26 
Fe       0.00024443       8.55913771     145.84094817      -0.00011674       0.00000120      -0.00002249        0        0       -1       58       26 
Fe       1.41511838      10.54937571     145.63919748      -0.00011377       0.00001579      -0.00005513        0        0       -1       58       26 
Fe      16.98020784      10.74939710     147.63376527      -0.00012936      -0.00004871      -0.00009195       -1        0       -1       58       26 
Fe       1.41515567      12.73989592     147.43474804      -0.00012502      -0.00003578      -0.00014329        0        0       -1       58       26 
Fe       0.00019758      12.94003198     149.42897985      -0.00014893      -0.00011018      -0.00015813        0        0       -1       58       26 
Fe       1.41519929      14.93092959     149.23155690      -0.00014879      -0.00010601      -0.00017860        0        0       -1       58       26 
Fe       0.00016000      15.13097683     151.22505577      -0.00017541      -0.00015547      -0.00016514        0        0       -1       58       26 
Fe       1.41518980      17.12220381     151.02778911      -0.00018075      -0.00016103      -0.00016810        0        0       -1       58       26 
Fe       0.00005596      17.32201247     153.02063556      -0.00019922      -0.00016638      -0.00013640        0        0       -1       58       26 
Fe       1.41509532      19.31338999     152.82261737      -0.00020584      -0.00017841      -0.00011985        0        0       -1       58       26 
Fe      -0.00013594      19.51292486     154.81509319      -0.00020785      -0.00014301      -0.00007194        0        0       -1       58       26 
Fe       1.41490445      21.50430203     154.61608625      -0.00021210      -0.00015497      -0.00005573        0        0       -1       58       26 
Fe      -0.00041947      21.70361829     156.60846018      -0.00020178      -0.00010105      -0.00001586        0        0       -1       58       26 
Fe       1.41462201      23.69493207     156.40873169      -0.00020569      -0.00010808      -0.00002282        0        0       -1       58       26 
Fe      -0.00078640      23.89412102     158.40117056      -0.00018479      -0.00005971       0.00001062        0        0       -1       58       26 
Fe       1.41425932      25.88537470     158.20120956      -0.00019012      -0.00006501      -0.00001470        0        0       -1       58       26 