2352
Lattice="16.98 0.0 0.0 0.0 28.3 0.0 0.0 0.0 55.83870409" Properties=species:S:1:pos:R:3:force:R:3:map_shift:I:3:n_neighb:I:1:Z:I:1 nneightol=1.2 virial="-104.43518207 -38.26081466 0.01642499 -38.26081466 -79.05152306 -0.21477858 0.01642499 -0.21477858 -21.79414713" energy=-9377.35491515 cutoff=5.3 pbc="T T T"
Fe       0.71583005       0.25673166      41.74341231      -0.00185397      -0.00422945       0.00108783        0        0       -1       52       26 
Fe      -0.13432623       2.30233578      42.76278851       0.00028497      -0.00133056      -0.00445545        0        0       -1       58       26 
Fe       1.29820145       4.28265308      42.72788246       0.00261162      -0.00013724       0.00064970        0        0       -1       60       26 
Fe       0.04425370       4.42656615      44.80491673      -0.00107673       0.00008515      -0.00078091        0        0       -1       59       26 
Fe       1.44797741       6.41876290      44.69719196      -0.00075734      -0.00055867      -0.00105341        0        0       -1       57       26 
Fe       0.10056889       6.70359412      46.66535698      -0.00303118      -0.00078027      -0.00242630        0        0       -1       58       26 
Fe       1.54511376       8.72138166      46.46379131      -0.00166316      -0.00133632      -0.00019974        0        0       -1       57       26 
Fe       0.14792660       8.98821891      48.39833202       0.00046561       0.00150691      -0.00077316        0        0       -1       58       26 
Fe       1.59190912      10.96246526      48.05079986       0.00051706       0.00249081       0.00044168        0        0       -1       58       26 
Fe       0.16540026      11.24820990      50.04323296       0.00161883       0.00060383      -0.00009228        0        0       -1       58       26 
Fe       1.58644439      13.22924606      49.76206548       0.00280310       0.00253492       0.00018154        0        0       -1       58       26 
Fe       0.16277009      13.51371716      51.74049286       0.00053394       0.00046382      -0.00111412        0        0       -1       58       26 
Fe       1.75377594       0.28365346      43.72553824      -0.00244646      -0.00046583       0.00047935        0        0       -1       55       26 
Fe       0.22946788       0.48635105      45.63003500      -0.00063877      -0.00239575      -0.00095093        0        0       -1       56       26 
Fe       1.51588938       2.45346251      45.02189483       0.00113426       0.00182588       0.00097728        0        0       -1       57       26 
Fe       0.13885919       2.74456709      47.09692758      -0.00047058       0.00100756       0.00136233        0        0       -1       57       26 
Fe       1.52205786       4.71185090      46.83695003      -0.00192010       0.00048292      -0.00065758        0        0       -1       58       26 
Fe       0.13435119       5.00512912      48.84879086      -0.00270478      -0.00031444      -0.00190702        0        0       -1       58       26 
Fe       1.54747720       6.99218573      48.63328542      -0.00173246       0.00029089      -0.00078726        0        0       -1       58       26 
Fe       0.14650537       7.27929688      50.60849303      -0.00167361       0.00105430       0.00049354        0        0       -1       58       26 
Fe       1.56886411       9.26906644      50.35476155      -0.00031965      -0.00111219       0.00075042        0        0       -1       58       26 
Fe       0.15573094       9.55193592      52.32366467      -0.00084477       0.00224693      -0.00025997        0        0       -1       58       26 
Fe       1.57533422      11.53281806      52.02776069       0.00207009       0.00042896      -0.00033564        0        0       -1       58       26 
Fe       0.15850150      11.81801138      54.00949146       0.00001115      -0.00145371       0.00132524        0        0       -1       58       26 
Fe       1.57456495      13.79858909      53.71948254       0.00106793      -0.00167517       0.00022950        0        0       -1       58       26 
Fe       1.59801325       0.79362259      47.52828181       0.00087615       0.00263226      -0.00065630        0        0       -1       58       26 
Fe       0.16567983       1.06550522      49.47880944       0.00162662       0.00351826       0.00175440        0        0       -1       58       26 
Fe       1.56314737       3.03289846      49.12135783      -0.00041279       0.00141483      -0.00050602        0        0       -1       58       26 
Fe       0.15250612       3.31912557      51.12426654       0.00007780      -0.00004417       0.00171641        0        0       -1       58       26 
Fe       1.56175989       5.29486106      50.84832751      -0.00243168       0.00133941       0.00064958        0        0       -1       58       26 
Fe       0.15221602       5.58318803      52.84051493      -0.00008828       0.00075577      -0.00098248        0        0       -1       58       26 
Fe       1.56715720       7.56634600      52.58711879       0.00090050       0.00121803      -0.00066860        0        0       -1       58       26 
Fe       0.15453814       7.85352521      54.56789714      -0.00017732      -0.00175117      -0.00090900        0        0       -1       58       26 
Fe       1.57113689       9.83711082      54.29940962       0.00051883      -0.00022203      -0.00036365        0        0       -1       58       26 
Fe       1.57495572       1.34575773      51.44709240      -0.00039599       0.00066729       0.00228143        0        0       -1       58       26 
Fe       0.15849380       1.62882827      53.42328725      -0.00192055      -0.00205044       0.00228956        0        0       -1       58       26 
Fe       1.57004007       3.60510890      53.11666028      -0.00095328      -0.00167373       0.00429067        0        0       -1       58       26 
Fe       0.15646066       3.88974441      55.10330100      -0.00163322      -0.00223977       0.00284436        0        0       -1       58       26 
Fe       1.56979974       5.87023132      54.82750997      -0.00159967      -0.00114066      -0.00076660        0        0       -1       58       26 
Fe       1.57344794       1.91163392      55.40297479      -0.00175077      -0.00251422       0.00266077        0        0       -1       58       26 
Fe      -0.09192672       6.29496867      42.71468530       0.00238808      -0.00224504       0.00092989        0        0       -1       55       26 
Fe       1.38218898       8.32288641      42.69458409       0.00207890      -0.00114834       0.00001951        0        0       -1       52       26 
Fe       0.07436595       8.41715411      44.59275782      -0.00089844       0.00237413      -0.00133237        0        0       -1       56       26 
Fe       1.71317176      10.44185889      43.96113114       0.00064817       0.00130413       0.00370907        0        0       -1       59       26 
Fe       0.20292316      10.67681833      46.03653645      -0.00239846       0.00004126       0.00277375        0        0       -1       57       26 
Fe       1.65832757      12.64678663      45.80057345      -0.00186849      -0.00053182       0.00273292        0        0       -1       58       26 
Fe       0.19332245      12.94312017      47.78428441       0.00209154       0.00319062       0.00152309        0        0       -1       58       26 
Fe      15.57174654      23.95367825      12.73356661      -0.00005063       0.00107756      -0.00138370       -1       -1        0       59       26 
Fe      14.23943048      23.72072749      10.69035152      -0.00082308      -0.00050759      -0.00162290       -1       -1        0       58       26 
Fe       0.35885806      12.42644107      43.79244807      -0.00337946      -0.00153123       0.00465603        0        0       -1       56       26 
Fe       0.15907343      -0.06778796      55.69975152      -0.00170546      -0.00365270      -0.00012690        0        0       -1       58       26 
Fe       1.07335543       2.36616727      40.46228299      -0.00022032       0.00110615      -0.00339433        0        0       -1       58       26 
Fe       2.55103249       4.34608240      40.65273643       0.00128882       0.00062074      -0.00162968        0        0       -1       59       26 
Fe       1.05395437       4.57941419      38.60960866       0.00081440       0.00024202      -0.00283481        0        0       -1       58       26 
Fe       2.48515865       6.56271883      38.75298099      -0.00054804      -0.00059964       0.00025071        0        0       -1       58       26 
Fe       1.02428330       6.85719218      36.78902743      -0.00074047       0.00103065      -0.00031289        0        0       -1       58       26 
Fe       2.41984227       8.86633577      37.01052416      -0.00238393       0.00014812      -0.00005494        0        0       -1       58       26 
Fe       0.99293374       9.13890046      35.07266630      -0.00191726      -0.00004707      -0.00054718        0        0       -1       58       26 
Fe       2.38800954      11.11290228      35.42446443      -0.00092038       0.00013998      -0.00172309        0        0       -1       58       26 
Fe       0.98052256      11.39514094      33.43330523      -0.00112820       0.00036072      -0.00010138        0        0       -1       58       26 
Fe       2.39090846      13.37373952      33.72745496      -0.00003131       0.00001411      -0.00320018        0        0       -1       58       26 
Fe       0.98177314      13.65609845      31.74462784      -0.00007727      -0.00111445      -0.00197707        0        0       -1       58       26 
Fe       2.28068959       0.34680396      39.82269578      -0.00051464      -0.00216689       0.00178001        0        0       -1       56       26 
Fe       0.94025732       0.66051887      37.93475503       0.00011895       0.00187485       0.00228756        0        0       -1       57       26 
Fe       2.42195086       2.61219299      38.36939968       0.00354321       0.00130076      -0.00159854        0        0       -1       57       26 
Fe       0.99548170       2.89504618      36.33666206       0.00167166       0.00166242       0.00052287        0        0       -1       58       26 
Fe       2.43274664       4.86727455      36.59464532       0.00228516       0.00201790       0.00103842        0        0       -1       58       26 
Fe       1.00096074       5.15660302      34.59485967       0.00160356       0.00029510      -0.00140803        0        0       -1       58       26 
Fe       2.41814192       7.14423919      34.82229708      -0.00037039       0.00202804      -0.00151419        0        0       -1       58       26 
Fe       0.99386203       7.42832899      32.84898543      -0.00080828       0.00108499       0.00042215        0        0       -1       58       26 
Fe       2.40396064       9.41683907      33.11413056      -0.00205384       0.00189939      -0.00084148        0        0       -1       58       26 
Fe       0.98736050       9.69738299      31.14389486      -0.00091944       0.00017773       0.00018900        0        0       -1       58       26 
Fe       2.39843354      11.67691806      31.44831651       0.00127777      -0.00021752       0.00061114        0        0       -1       58       26 
Fe       0.98465641      11.95792445      29.46567241       0.00178756      -0.00019856       0.00118528        0        0       -1       58       26 
Fe       2.39896987      13.93739011      29.76241607       0.00096665      -0.00064867      -0.00152168        0        0       -1       58       26 
Fe       2.38380628       0.92789988      35.98410623       0.00066538       0.00070600       0.00002305        0        0       -1       58       26 
Fe       0.97962537       1.20591462      34.01393892       0.00129091      -0.00036587      -0.00173586        0        0       -1       58       26 
Fe       2.40596736       3.17976776      34.32933510       0.00138038      -0.00055458      -0.00071117        0        0       -1       58       26 
Fe       0.98860806       3.46358774      32.33392090       0.00260567      -0.00031374      -0.00106339        0        0       -1       58       26 
Fe       2.40811103       5.44280923      32.60281865       0.00134524       0.00031985       0.00019337        0        0       -1       58       26 
Fe       0.98979809       5.72772194      30.61572846       0.00087782       0.00014937      -0.00206071        0        0       -1       58       26 
Fe       2.40479787       7.71229129      30.87189925       0.00036710      -0.00010082       0.00057181        0        0       -1       58       26 
Fe       0.98839234       7.99543667      28.89168096       0.00141372       0.00024831      -0.00019635        0        0       -1       58       26 
Fe       2.40177491       9.97838372      29.16660936       0.00119133       0.00047980       0.00248203        0        0       -1       58       26 
Fe       2.39869721       1.48656291      32.03575873       0.00126556      -0.00182182      -0.00340882        0        0       -1       58       26 
Fe       0.98539927       1.76748982      30.05441126      -0.00073014      -0.00027413      -0.00283802        0        0       -1       58       26 
Fe       2.40298734       3.74674470      30.34500715      -0.00106474      -0.00152441      -0.00078436        0        0       -1       58       26 
Fe       0.98764059       4.02864512      28.36039043      -0.00134163       0.00269701       0.00017231        0        0       -1       58       26 
Fe       2.40376431       6.01124680      28.63131442      -0.00002838       0.00228204      -0.00275459        0        0       -1       58       26 
Fe       2.40058529       2.04823942      28.07218901       0.00033496       0.00296877      -0.00161463        0        0       -1       58       26 
Fe       1.16190266       6.34651778      40.72626879       0.00331307      -0.00082541       0.00081755        0        0       -1       56       26 
Fe       2.54490816       8.35727869      40.78078671       0.00210824       0.00064894       0.00295491        0        0       -1       55       26 
Fe       1.04049488       8.56245933      38.89720592      -0.00094132      -0.00416602       0.00185426        0        0       -1       56       26 
Fe       2.31891644      10.53197723      39.48009961       0.00188015      -0.00132198      -0.00150613        0        0       -1       57       26 
Fe       0.95589674      10.82605863      37.43093614       0.00021514      -0.00195411      -0.00116673        0        0       -1       57       26 
Fe       2.34275392      12.80363244      37.69609564      -0.00017235       0.00036864      -0.00023391        0        0       -1       58       26 
Fe       0.96158618      13.09100856      35.71136937      -0.00088954       0.00076055      -0.00166847        0        0       -1       58       26 
Fe       0.61841981      10.39108591      41.70110355       0.00176223       0.00187178       0.00232940        0        0       -1       58       26 
Fe       2.05775699      12.37514557      41.73392935      -0.00056373      -0.00128794       0.00222785        0        0       -1       57       26 
Fe       0.84958891      12.50531433      39.69125343       0.00173698      -0.00203140      -0.00011273        0        0       -1       58       26 
Fe       0.42962583      -0.25622397      13.82380666      -0.00117793       0.00277081       0.00127103        0        0        0       52       26 
Fe       1.27796543      11.84781025      14.84367770      -0.00069184       0.00098177      -0.00415972        0        0        0       58       26 
Fe       2.67478790       9.86724597      14.80864697      -0.00178031       0.00128404       0.00110155        0        0        0       60       26 
Fe       1.09878707       9.72317437      16.88590779       0.00140811      -0.00014658      -0.00208117        0        0        0       59       26 
Fe       2.52511805       7.73089380      16.77798398       0.00114341      -0.00030800      -0.00106805        0        0        0       57       26 
Fe       1.04305208       7.44622646      18.74623957       0.00159488       0.00064518      -0.00349378        0        0        0       58       26 
Fe       2.42850722       5.42848537      18.54428944       0.00115250       0.00121844      -0.00025079        0        0        0       57       26 
Fe       0.99567040       5.16138927      20.47880794      -0.00087827       0.00017227       0.00031712        0        0        0       58       26 
Fe       2.38159339       3.18722059      20.13142182       0.00051194      -0.00242420       0.00077508        0        0        0       58       26 
Fe       0.97797750       2.90191157      22.12362170      -0.00154810      -0.00103420       0.00150530        0        0        0       58       26 
Fe       2.38668127       0.92055881      21.84293652      -0.00137222      -0.00169224      -0.00090085        0        0        0       58       26 
Fe       0.98038060       0.63637172      23.82115929      -0.00006839      -0.00126895       0.00030624        0        0        0       58       26 
Fe       2.22115566      13.86670965      15.80568291       0.00028060      -0.00116902       0.00094303        0        0        0       55       26 
Fe       0.91468562      13.66331595      17.71004284       0.00003815       0.00084787      -0.00059331        0        0        0       56       26 
Fe       2.45711933      11.69634908      17.10203418       0.00082659      -0.00048419       0.00389714        0        0        0       57       26 
Fe       1.00437332      11.40542092      19.17751468       0.00096774      -0.00194805       0.00040308        0        0        0       57       26 
Fe       2.45148589       9.43807205      18.91776257       0.00032339      -0.00083930      -0.00096443        0        0        0       58       26 
Fe       1.00896274       9.14478869      20.92952528       0.00268735      -0.00025634      -0.00068030        0        0        0       58       26 
Fe       2.42607778       7.15752575      20.71415230       0.00151048       0.00065895      -0.00118823        0        0        0       58       26 
Fe       0.99708437       6.87077393      22.68936729       0.00064666       0.00008264       0.00045053        0        0        0       58       26 
Fe       2.40465556       4.88124190      22.43545165       0.00063970      -0.00105488       0.00018011        0        0        0       58       26 
Fe       0.98793273       4.59826874      24.40435470      -0.00002761      -0.00215651      -0.00098719        0        0        0       58       26 
Fe       2.39805829       2.61741035      24.10812248      -0.00191836      -0.00126540       0.00147316        0        0        0       58       26 
Fe       0.98495255       2.33213192      26.09017982       0.00045905       0.00062295       0.00118337        0        0        0       58       26 
Fe       2.39881202       0.35160947      25.80033854      -0.00084330       0.00179372      -0.00004349        0        0        0       58       26 
Fe       2.37556194      13.35623754      19.60843231      -0.00133289      -0.00286707       0.00124050        0        0        0       58       26 
Fe       0.97730847      13.08435384      21.55930332      -0.00021710      -0.00303164       0.00191694        0        0        0       58       26 
Fe       2.40982868      11.11707929      21.20200077       0.00123124      -0.00223524       0.00045710        0        0        0       58       26 
Fe       0.99026886      10.83080282      23.20518123       0.00234645       0.00058238       0.00197760        0        0        0       58       26 
Fe       2.41141824       8.85528094      22.92932961       0.00320897      -0.00229671      -0.00040876        0        0        0       58       26 
Fe       0.99122248       8.56696359      24.92156559       0.00001286       0.00017554      -0.00139186        0        0        0       58       26 
Fe       2.40643567       6.58393872      24.66803451      -0.00079778      -0.00230903      -0.00115482        0        0        0       58       26 
Fe       0.98919866       6.29654000      26.64872146      -0.00022889       0.00113277      -0.00070158        0        0        0       58       26 
Fe       2.40258440       4.31284750      26.37989801      -0.00129326       0.00162266       0.00097457        0        0        0       58       26 
Fe       2.39796773      12.80407666      23.52780276       0.00176558       0.00098041       0.00222181        0        0        0       58       26 
Fe       0.98493506      12.52146251      25.50413687       0.00098309       0.00137331       0.00283543        0        0        0       58       26 
Fe       2.40316866      10.54509740      25.19797684       0.00203116       0.00136691       0.00207892        0        0        0       58       26 
Fe       0.98726176      10.26045406      27.18456316       0.00023819       0.00124569       0.00177299        0        0        0       58       26 
Fe       2.40392837       8.27985073      26.90847882       0.00066395       0.00153026      -0.00102173        0        0        0       58       26 
Fe       2.40029293      12.23846656      27.48400330       0.00042473       0.00382426       0.00279517        0        0        0       58       26 
Fe       1.23458444       7.85525882      14.79548639      -0.00143319       0.00142920      -0.00014690        0        0        0       55       26 
Fe       2.59037726       5.82783239      14.77491069      -0.00094779      -0.00219584       0.00012263        0        0        0       52       26 
Fe       1.06878355       5.73207880      16.67302643       0.00095607      -0.00000188      -0.00106297        0        0        0       56       26 
Fe       2.26095951       3.70790927      16.04216370       0.00229051       0.00021629       0.00476604        0        0        0       59       26 
Fe       0.94101528       3.47287016      18.11746259       0.00171705       0.00078513       0.00227401        0        0        0       57       26 
Fe       2.31591437       1.50293686      17.88174522       0.00115835      -0.00013964       0.00130852        0        0        0       58       26 
Fe       0.95035481       1.20649060      19.86519397      -0.00266932      -0.00270552       0.00154493        0        0        0       58       26 
Fe      15.63809125      21.73770693      10.83291376      -0.00087427       0.00024839       0.00344138       -1       -1        0       58       26 
Fe      14.26880967      21.44262944       8.86921063       0.00288649      -0.00132108      -0.00091903       -1       -1        0       58       26 
Fe       0.78634862       1.72355813      15.87401576       0.00038532       0.00158650       0.00115084        0        0        0       56       26 
Fe       0.98451300       0.06799674      27.78075158       0.00126929       0.00358279      -0.00028241        0        0        0       58       26 
Fe       0.06951261      11.78374784      12.54350257       0.00155044       0.00015877      -0.00334383        0        0        0       58       26 
Fe       1.42174654       9.80367825      12.73356661      -0.00005063       0.00107756      -0.00138370        0        0        0       59       26 
Fe       0.08943048       9.57072749      10.69035152      -0.00082308      -0.00050759      -0.00162290        0        0        0       58       26 
Fe       1.48809125       7.58770693      10.83291376      -0.00087427       0.00024839       0.00344138        0        0        0       58       26 
Fe       0.11880967       7.29262944       8.86921063       0.00288649      -0.00132108      -0.00091903        0        0        0       58       26 
Fe       1.55355159       5.28356121       9.09031123       0.00200806      -0.00041842       0.00168165        0        0        0       58       26 
Fe       0.15076520       5.01076889       7.15259991       0.00219463       0.00026478       0.00008939        0        0        0       58       26 
Fe       1.58622359       3.03711124       7.50514435      -0.00134316      -0.00144940      -0.00205898        0        0        0       58       26 
Fe       0.16362177       2.75484204       5.51386094      -0.00084642      -0.00089435      -0.00025626        0        0        0       58       26 
Fe       1.58285386       0.77642493       5.80789743      -0.00007971      -0.00231118      -0.00287165        0        0        0       58       26 
Fe      17.14146974       0.49431529       3.82478717       0.00148976      -0.00051759      -0.00009633       -1        0        0       58       26 
Fe       1.69366131      13.80331895      11.90309903       0.00113668       0.00290133       0.00197715        0        0        0       56       26 
Fe       0.20401455      13.48907059      10.01528440      -0.00209341       0.00035862       0.00285463        0        0        0       57       26 
Fe       1.55185075      11.53762886      10.45031781      -0.00422682      -0.00029401      -0.00243041        0        0        0       57       26 
Fe       0.14830517      11.25454440       8.41739794      -0.00235099      -0.00023012       0.00023897        0        0        0       58       26 
Fe       1.54069450       9.28235445       8.67585981      -0.00226340      -0.00054749      -0.00253368        0        0        0       58       26 
Fe       0.14263638       8.99315276       6.67596848      -0.00317074      -0.00044909      -0.00260259        0        0        0       58       26 
Fe       1.55520400       7.00530060       6.90256345       0.00170974      -0.00009096      -0.00028818        0        0        0       58       26 
Fe       0.14978538       6.72145953       4.92952945      -0.00056986      -0.00041897      -0.00066256        0        0        0       58       26 
Fe       1.57001473       4.73278981       5.19410868       0.00049683      -0.00035730       0.00051074        0        0        0       58       26 
Fe       0.15631906       4.45243373       3.22405808       0.00059698       0.00068522       0.00007790        0        0        0       58       26 
Fe       1.57523050       2.47322429       3.52872739      -0.00129803      -0.00025350      -0.00000175        0        0        0       58       26 
Fe      17.13893412       2.19220373       1.54584903      -0.00173364       0.00020314       0.00220600       -1        0        0       58       26 
Fe       1.57449233       0.21302089       1.84259572      -0.00159906      -0.00055019      -0.00088579        0        0        0       58       26 
Fe       1.59015038      13.22187860       8.06472231      -0.00095821      -0.00056910      -0.00072274        0        0        0       58       26 
Fe       0.16383620      12.94397315       6.09450472      -0.00076482       0.00085398      -0.00248352        0        0        0       58       26 
Fe       1.56764505      10.96991246       6.40998939      -0.00296788       0.00213299      -0.00119512        0        0        0       58       26 
Fe       0.15419626      10.68656445       4.41438674       0.00026220       0.00057631      -0.00040638        0        0        0       58       26 
Fe       1.56509717       8.70721126       4.68384056      -0.00054352      -0.00031131      -0.00183197        0        0        0       58       26 
Fe       0.15340401       8.42215804       2.69652526       0.00028092       0.00172044      -0.00308132        0        0        0       58       26 
Fe       1.56859439       6.43749653       2.95255539       0.00070843       0.00126416      -0.00084330        0        0        0       58       26 
Fe       0.15516850       6.15439689       0.97220739      -0.00117096       0.00012963      -0.00054102        0        0        0       58       26 
Fe       1.57174473       4.17139598       1.24687305      -0.00024071       0.00141431       0.00121826        0        0        0       58       26 
Fe       1.57407534      12.66389557       4.11605388       0.00191755      -0.00009963      -0.00233210        0        0        0       58       26 
Fe       0.15771065      12.38298331       2.13458053       0.00156674      -0.00106179      -0.00147248        0        0        0       58       26 
Fe       1.57004929      10.40361331       2.42548471       0.00238296      -0.00052117       0.00027493        0        0        0       58       26 
Fe       0.15601330      10.12143503       0.44111630       0.00013505      -0.00284534      -0.00032644        0        0        0       58       26 
Fe       1.56995674       8.13857732       0.71176954      -0.00145859      -0.00090344      -0.00060582        0        0        0       58       26 
Fe       1.57297782      12.10202386       0.15242868      -0.00126517      -0.00423082       0.00018647        0        0        0       58       26 
Fe      -0.01907941       7.80341292      12.80664486      -0.00204830       0.00002790       0.00094372        0        0        0       56       26 
Fe       1.42820206       5.79253089      12.86082851      -0.00264403      -0.00057142       0.00243883        0        0        0       55       26 
Fe       0.10229104       5.58848462      10.97680891       0.00340959       0.00207112       0.00208875        0        0        0       56       26 
Fe       1.65447336       3.61828522      11.56059061       0.00097369       0.00237152       0.00070499        0        0        0       57       26 
Fe       0.18793082       3.32410401       9.51167201      -0.00045069       0.00042551      -0.00203620        0        0        0       57       26 
Fe       1.63130110       1.34621892       9.77677450       0.00068461       0.00022623      -0.00050779        0        0        0       58       26 