24636
Lattice="16.98 0.0 0.0 0.0 90.73670261 0.0 0.0 0.0 181.40447389" Properties=species:S:1:pos:R:3:force:R:3:map_shift:I:3:n_neighb:I:1:Z:I:1 virial="-20.25289362 0.0101669 0.04670257 0.0101669 -185.25647393 97.91091378 0.04670257 97.91091378 -283.34553223" cutoff=5.3 adsorbate_info=T nneightol=1.2 energy=-98740.62955834 pbc="T T T"
Fe       1.27260573       4.42133977     135.43884846       0.00001120       0.00016878       0.00007302        0        0       -1       55       26
Fe      -0.14179730       2.80918934     136.56450327      -0.00000882      -0.00001795       0.00012198        0        0       -1       52       26
Fe      -0.14196589       5.75305428     136.79896336      -0.00000492      -0.00006481      -0.00010779        0        0       -1       56       26
Fe      -0.14198517       8.56840507     136.82876113      -0.00000893       0.00007523       0.00008896        0        0       -1       58       26
Fe      -0.14198667      11.38604347     136.84175986      -0.00000320      -0.00003711      -0.00003989        0        0       -1       58       26
Fe      -0.14199192      14.21708154     136.85187850      -0.00000596       0.00002671       0.00002429        0        0       -1       58       26
Fe      -0.14198076      17.06388025     136.86325491      -0.00000151      -0.00000765      -0.00000958        0        0       -1       58       26
Fe      -0.14196412      19.92987608     136.88064225      -0.00000518       0.00000627       0.00000418        0        0       -1       58       26
Fe      -0.14208375      22.78866153     136.90809657       0.00000326       0.00004290      -0.00000555        0        0       -1       60       26
Fe      14.01497288      84.98689166       2.45114332      -0.00006854       0.00005820       0.00002881       -1       -1        0       58       26
Fe      -0.14162781      25.26145494     137.45475819      -0.00000602      -0.00029471       0.00016771        0        0       -1       56       26
Fe       1.27317499      26.91079365     136.56763782      -0.00000259       0.00031263      -0.00064022        0        0       -1       52       26
Fe      -0.14154124      28.28107293     137.98294726      -0.00000537       0.00039194       0.00006132        0        0       -1       56       26
Fe       1.27301564      29.85849475     136.80158345      -0.00000645       0.00023251       0.00055199        0        0       -1       56       26
Fe      -0.14159875      31.20637024     138.18502457      -0.00000693      -0.00045964      -0.00025585        0        0       -1       58       26
Fe       1.27300280      32.67916035     136.83172138      -0.00000654      -0.00019255      -0.00034175        0        0       -1       58       26
Fe      -0.14160601      34.04969199     138.23702607      -0.00000894       0.00029215       0.00020262        0        0       -1       58       26
Fe       1.27300565      35.50408458     136.84575643      -0.00001051       0.00012362       0.00017932        0        0       -1       58       26
Fe      -0.14158127      36.88465715     138.26697876      -0.00001029      -0.00013686      -0.00011742        0        0       -1       58       26
Fe       1.27302395      38.34502457     136.85866759      -0.00000705      -0.00005387      -0.00010092        0        0       -1       58       26
Fe      -0.14154959      39.72099055     138.30225987      -0.00001713       0.00006826       0.00006106        0        0       -1       58       26
Fe       1.27303560      41.20579221     136.87680527      -0.00001705       0.00003218       0.00003518        0        0       -1       58       26
Fe      -0.14147091      42.53568262     138.38694125      -0.00001980      -0.00001849      -0.00001410        0        0       -1       58       26
Fe       1.27293078      44.05998036     136.91354336      -0.00001495      -0.00000327       0.00002138        0        0       -1       60       26
Fe      -0.14121108      45.14789058     138.80380444      -0.00001155      -0.00002027      -0.00001623        0        0       -1       56       26
Fe       1.27340167       1.16184218     137.44492052      -0.00001261       0.00004385      -0.00002051        0        0       -1       56       26
Fe      -0.14112066       2.58792169     139.09384111      -0.00001918       0.00001141      -0.00002449        0        0       -1       55       26
Fe       1.27348881       4.17739444     137.97655749      -0.00000775      -0.00005282      -0.00003678        0        0       -1       56       26
Fe      -0.14117843       5.53751699     139.41179815      -0.00001516       0.00006362       0.00007435        0        0       -1       58       26
Fe       1.27341320       7.10001897     138.17911812      -0.00001845       0.00009662       0.00009991        0        0       -1       58       26
Fe      -0.14121321       8.44911887     139.57848115      -0.00001783      -0.00007542      -0.00006416        0        0       -1       58       26
Fe       1.27339698       9.93878912     138.23003402      -0.00000619      -0.00005405      -0.00005801        0        0       -1       58       26
Fe      -0.14121905      11.30064742     139.64212650      -0.00001369       0.00006658       0.00005713        0        0       -1       58       26
Fe       1.27340954      12.76915215     138.25556165      -0.00000807       0.00003561       0.00004287        0        0       -1       58       26
Fe      -0.14120076      14.13541157     139.68311886      -0.00001067      -0.00001836      -0.00002927        0        0       -1       58       26
Fe       1.27341820      15.60477812     138.27852663      -0.00000874      -0.00000876      -0.00001211        0        0       -1       58       26
Fe      -0.14116935      16.96055263     139.72954750      -0.00001075       0.00002402       0.00002301        0        0       -1       58       26
Fe       1.27345498      18.44439982     138.31145005      -0.00000332       0.00001651       0.00000251        0        0       -1       58       26
Fe      -0.14111270      19.75425714     139.81643597      -0.00001246       0.00002446      -0.00001138        0        0       -1       58       26
Fe       1.27352166      21.26467904     138.39464837      -0.00000003      -0.00000927      -0.00000237        0        0       -1       58       26
Fe      -0.14101052      22.41936126     140.07844638      -0.00000887      -0.00009222       0.00008745        0        0       -1       56       26
Fe       1.27375025      23.87834424     138.81774017      -0.00000703       0.00013731      -0.00013847        0        0       -1       56       26
Fe      -0.14088151      25.21160909     140.35586122      -0.00001351       0.00019263      -0.00014007        0        0       -1       56       26
Fe       1.27384582      26.69125141     139.10580011      -0.00000827      -0.00017274       0.00024678        0        0       -1       55       26
Fe      -0.14082895      28.07607311     140.62652581      -0.00001027      -0.00018269       0.00002961        0        0       -1       59       26
Fe       1.27380216      29.64139737     139.42240901      -0.00001200      -0.00004073      -0.00029234        0        0       -1       58       26
Fe      -0.14083967      31.00104734     140.86446112      -0.00001817       0.00023284       0.00013251        0        0       -1       58       26
Fe       1.27378337      32.55427042     139.58928767      -0.00001577       0.00023419       0.00033207        0        0       -1       58       26
Fe      -0.14083464      33.89690185     141.01332156      -0.00001842      -0.00022403      -0.00019559        0        0       -1       58       26
Fe       1.27379748      35.40619244     139.65784194      -0.00001955      -0.00015671      -0.00021289        0        0       -1       58       26
Fe      16.83919177      36.73961858     141.10375304      -0.00001922       0.00016054       0.00014788       -1        0       -1       58       26
Fe       1.27383558      38.23455017     139.71302313      -0.00001766       0.00009983       0.00012183        0        0       -1       58       26
Fe      -0.14075007      39.53596834     141.20396855      -0.00002564      -0.00007280      -0.00007783        0        0       -1       58       26
Fe       1.27390049      41.02676116     139.80311358      -0.00001559      -0.00004377      -0.00005357        0        0       -1       58       26
Fe      -0.14068515      42.24889175     141.39263820      -0.00002372       0.00003606       0.00003471        0        0       -1       58       26
Fe       1.27401120      43.69045548     140.06040996      -0.00001718       0.00002417       0.00000477        0        0       -1       56       26
Fe      -0.14056259      45.00180305     141.63145654      -0.00002394       0.00000063      -0.00001363        0        0       -1       58       26
Fe       1.27415330       1.11005230     140.33995685      -0.00002208      -0.00002895      -0.00001004        0        0       -1       56       26
Fe      -0.14048273       2.46256577     141.86616023      -0.00002706       0.00000426       0.00000229        0        0       -1       58       26
Fe       1.27420126       3.97345534     140.61038458      -0.00002224       0.00001756       0.00002329        0        0       -1       59       26
Fe      -0.14046594       5.34718674     142.09399942      -0.00002951      -0.00002192      -0.00000694        0        0       -1       58       26
Fe       1.27416986       6.89931580     140.84848768      -0.00002415      -0.00003666      -0.00004401        0        0       -1       58       26
Fe      -0.14046917       8.25631227     142.28956342      -0.00002826       0.00005356       0.00004484        0        0       -1       58       26
Fe       1.27415766       9.79809092     140.99301131      -0.00001545       0.00006489       0.00007261        0        0       -1       58       26
Fe      -0.14046931      11.13970043     142.42475646      -0.00002350      -0.00003449      -0.00003682        0        0       -1       58       26
Fe       1.27417042      12.65021683     141.06963382      -0.00002022      -0.00002784      -0.00003943        0        0       -1       58       26
Fe      -0.14045469      13.98040027     142.51964332      -0.00002144       0.00004373       0.00004220        0        0       -1       58       26
Fe       1.27418918      15.47557181     141.13417490      -0.00001306       0.00003856       0.00002829        0        0       -1       58       26
Fe      -0.14042277      16.78090410     142.61994956      -0.00001965       0.00000727      -0.00002096        0        0       -1       58       26
Fe       1.27423214      18.26653578     141.22478137      -0.00001805      -0.00000982       0.00000022        0        0       -1       58       26
Fe      -0.14037467      19.52502701     142.77383237      -0.00001857      -0.00002379       0.00005401        0        0       -1       58       26
Fe       1.27430311      20.97807958     141.41182014      -0.00001251       0.00007084      -0.00004345        0        0       -1       58       26
Fe      -0.14029151      22.27145612     142.97270752      -0.00002358       0.00009223      -0.00007061        0        0       -1       58       26
Fe       1.27441157      23.73410858     141.65111959      -0.00001454      -0.00009756       0.00011814        0        0       -1       58       26
Fe      -0.14021362      25.07466321     143.18269480      -0.00001705      -0.00007767       0.00007214        0        0       -1       58       26
Fe       1.27448169      26.56347622     141.88636182      -0.00001754       0.00009623      -0.00010031        0        0       -1       58       26
Fe      -0.14016131      27.92433665     143.39233010      -0.00002304       0.00009738      -0.00001946        0        0       -1       58       26
Fe       1.27451551      29.44683044     142.11546959      -0.00002052       0.00001070       0.00012675        0        0       -1       58       26
Fe      -0.14013286      30.80484739     143.59634307      -0.00002214      -0.00008120      -0.00004241        0        0       -1       58       26
Fe       1.27452156      32.35134192     142.31491209      -0.00001565      -0.00008796      -0.00018337        0        0       -1       58       26
Fe      -0.14010989      33.68583850     143.78082586      -0.00002582       0.00013129       0.00011054        0        0       -1       58       26
Fe       1.27454607      35.22402646     142.46221624      -0.00002263       0.00014066       0.00017527        0        0       -1       58       26
Fe      -0.14008001      36.52944311     143.94079020      -0.00002978      -0.00009925      -0.00010410        0        0       -1       58       26
Fe       1.27458434      38.04071165     142.58572075      -0.00002306      -0.00008504      -0.00011704        0        0       -1       58       26
Fe      -0.14003443      39.31534029     144.10411349      -0.00002724       0.00007959       0.00008606        0        0       -1       58       26
Fe       1.27464347      40.79165247     142.74854374      -0.00002444       0.00005665       0.00006900        0        0       -1       58       26
Fe      -0.13997135      42.07750014     144.28627472      -0.00003192      -0.00003632      -0.00002524        0        0       -1       58       26
Fe       1.27472486      43.53953777     142.94948599      -0.00003238      -0.00001183      -0.00001683        0        0       -1       58       26
Fe      -0.13989405      44.86663379     144.47433842      -0.00003589       0.00002858       0.00001345        0        0       -1       58       26
Fe       1.27481251       0.97470790     143.15863870      -0.00003374       0.00000519       0.00001245        0        0       -1       58       26
Fe      -0.13983092       2.32683815     144.66477852      -0.00003263      -0.00001597       0.00000791        0        0       -1       58       26
Fe       1.27485856       3.82644270     143.36628694      -0.00002775       0.00000459      -0.00001141        0        0       -1       58       26
Fe      -0.13978721       5.18720692     144.85457553      -0.00003012       0.00002157       0.00000450        0        0       -1       58       26
Fe       1.27488039       6.71194456     143.56600470      -0.00003073       0.00001297       0.00003124        0        0       -1       58       26
Fe      -0.13976796       8.06499248     145.03791874      -0.00003458      -0.00001230      -0.00000401        0        0       -1       58       26
Fe       1.27489076       9.60355068     143.74003722      -0.00003208      -0.00001326      -0.00002330        0        0       -1       58       26
Fe      -0.13975737      10.93679900     145.20488971      -0.00003562       0.00003881       0.00003535        0        0       -1       58       26
Fe       1.27489698      12.46716627     143.87754156      -0.00002613       0.00004372       0.00004837        0        0       -1       58       26
Fe      -0.13974891      13.77746701     145.35370808      -0.00002799      -0.00000672      -0.00002343        0        0       -1       58       26
Fe       1.27491799      15.28652710     143.99808905      -0.00002356      -0.00000923      -0.00001606        0        0       -1       58       26
Fe      -0.13971497      16.57450886     145.50295523      -0.00002801       0.00001378       0.00003768        0        0       -1       58       26
Fe       1.27495554      18.05756529     144.14167696      -0.00002191       0.00005007       0.00000097        0        0       -1       58       26
Fe      -0.13966825      19.34611256     145.66677563      -0.00002707       0.00004952      -0.00003337        0        0       -1       58       26
Fe       1.27501823      20.81257240     144.31602410      -0.00002105      -0.00004484       0.00005865        0        0       -1       58       26
Fe      -0.13960732      22.12799816     145.83867350      -0.00002842      -0.00003328       0.00006307        0        0       -1       58       26
Fe       1.27509244      23.59844151     144.50264124      -0.00002436       0.00007746      -0.00005321        0        0       -1       58       26
Fe      -0.13955369      24.93664771     146.01557054      -0.00002674       0.00005396      -0.00002611        0        0       -1       58       26
Fe       1.27514422      26.42393473     144.69484194      -0.00002343      -0.00002509       0.00005672        0        0       -1       58       26
Fe      -0.13950433      27.77125056     146.19821135      -0.00002722      -0.00002418       0.00002306        0        0       -1       58       26
Fe       1.27518709      29.27890129     144.88915906      -0.00002482       0.00002433      -0.00004709        0        0       -1       58       26
Fe      -0.13945820      30.62182916     146.38596480      -0.00002973       0.00004728       0.00001270        0        0       -1       58       26
Fe       1.27522103      32.14691350     145.08163311      -0.00002263       0.00004063       0.00008026        0        0       -1       58       26
Fe      -0.13942381      33.47285186     146.57722472      -0.00002904      -0.00003916      -0.00002962        0        0       -1       58       26
Fe       1.27525252      35.00211435     145.26647326      -0.00002745      -0.00006040      -0.00009225        0        0       -1       58       26
Fe      -0.13938715      36.30556041     146.76930806      -0.00003171       0.00007074       0.00006148        0        0       -1       58       26
Fe       1.27529174      37.81854891     145.44575304      -0.00003284       0.00006923       0.00009432        0        0       -1       58       26
Fe      -0.13934781      39.11372274     146.95739578      -0.00003346      -0.00004609      -0.00003550        0        0       -1       58       26
Fe       1.27533690      40.60365640     145.62570325      -0.00003216      -0.00003554      -0.00004817        0        0       -1       58       26
Fe      -0.13929662      41.91367941     147.13632701      -0.00003980       0.00005005       0.00004125        0        0       -1       58       26
Fe       1.27540132      43.39325334     145.80386137      -0.00003540       0.00001976       0.00004685        0        0       -1       58       26
Fe      -0.13923720      44.72363306     147.30797154      -0.00003343      -0.00001660       0.00000566        0        0       -1       58       26
Fe       1.27546865       0.83896581     145.98105568      -0.00003399       0.00001191      -0.00000911        0        0       -1       58       26
Fe      -0.13918623       2.18289739     147.47845096      -0.00003826       0.00002726       0.00000420        0        0       -1       58       26
Fe       1.27552055       3.67960582     146.15997396      -0.00003776      -0.00000141       0.00001586        0        0       -1       58       26
Fe      -0.13914212       5.02706360     147.65159788      -0.00003521      -0.00000623       0.00001549        0        0       -1       58       26
Fe       1.27555412       6.53930261     146.33973968      -0.00003357       0.00000855      -0.00001254        0        0       -1       58       26
Fe      -0.13911303       7.88018988     147.82786063      -0.00004082       0.00001914       0.00000783        0        0       -1       58       26
Fe       1.27557298       9.40424075     146.51663123      -0.00003389       0.00001610       0.00002050        0        0       -1       58       26
Fe      -0.13909166      10.73027904     148.00518178      -0.00003343      -0.00000005      -0.00000519        0        0       -1       58       26
Fe       1.27558763      12.25537834     146.68607572      -0.00002910       0.00000198      -0.00000863        0        0       -1       58       26
Fe      -0.13907136      13.56340614     148.18137107      -0.00003964       0.00001848       0.00003133        0        0       -1       58       26
Fe       1.27561187      15.07528012     146.85006348      -0.00002898       0.00004125       0.00001500        0        0       -1       58       26
Fe      -0.13903687      16.37416986     148.35464885      -0.00003499       0.00002184      -0.00001742        0        0       -1       58       26
Fe       1.27565052      17.86713549     147.01520760      -0.00002764      -0.00001796       0.00001755        0        0       -1       58       26
Fe      -0.13899801      19.17330778     148.52304631      -0.00003545       0.00000095       0.00004169        0        0       -1       58       26
Fe       1.27569624      20.65474397     147.18142091      -0.00003165       0.00006181      -0.00001437        0        0       -1       58       26
Fe      -0.13894986      21.97516862     148.68751467      -0.00003548       0.00003350      -0.00001786        0        0       -1       58       26
Fe       1.27574943      23.45597051     147.34880354      -0.00002985      -0.00002209       0.00004115        0        0       -1       58       26
Fe      -0.13889936      24.78743974     148.85283866      -0.00003154      -0.00000651       0.00003621        0        0       -1       58       26
Fe       1.27579954      26.27592580     147.52075681      -0.00002916       0.00003826      -0.00001370        0        0       -1       58       26
Fe      -0.13885450      27.61103462     149.02425747      -0.00003524       0.00002467       0.00000065        0        0       -1       58       26
Fe       1.27584423      29.11106894     147.70023485      -0.00002934      -0.00000250       0.00003333        0        0       -1       58       26
Fe      -0.13881427      30.44197380     149.20505209      -0.00003348      -0.00001155       0.00001852        0        0       -1       58       26
Fe       1.27588946      31.95218352     147.88798501      -0.00003515       0.00000225      -0.00001463        0        0       -1       58       26
Fe      -0.13877565      33.27352541     149.39565450      -0.00003703       0.00003035       0.00002510        0        0       -1       58       26
Fe       1.27592459      34.78764768     148.08266629      -0.00003303       0.00002765       0.00005419        0        0       -1       58       26
Fe      -0.13873967      36.10064819     149.59171305      -0.00003598      -0.00002157      -0.00000369        0        0       -1       58       26
Fe       1.27595708      37.61009721     148.27785172      -0.00003747      -0.00002450      -0.00003305        0        0       -1       58       26
Fe      -0.13870182      38.92315938     149.78357156      -0.00004111       0.00003981       0.00003202        0        0       -1       58       26
Fe       1.27600075      40.42338184     148.46376728      -0.00004059       0.00002767       0.00005475        0        0       -1       58       26
Fe      -0.13866014      41.74403445     149.96381925      -0.00003560      -0.00002037       0.00000304        0        0       -1       58       26
Fe       1.27605124      43.23721882     148.63757016      -0.00004171       0.00000542      -0.00001950        0        0       -1       58       26
Fe      -0.13861186      44.56691809     150.13353555      -0.00004214       0.00003869       0.00001759        0        0       -1       58       26
Fe       1.27610392       0.69103599     148.80484948      -0.00003769       0.00000726       0.00002952        0        0       -1       58       26
Fe      -0.13856837       2.02661643     150.29927505      -0.00004057      -0.00000257       0.00001848        0        0       -1       58       26
Fe       1.27615129       3.52437301     148.97253713      -0.00004044       0.00001809      -0.00000734        0        0       -1       58       26
Fe      -0.13852678       4.86042352     150.46738835      -0.00004348       0.00002686       0.00000379        0        0       -1       58       26
Fe       1.27618807       6.36633117     149.14456994      -0.00003837       0.00000587       0.00001597        0        0       -1       58       26
Fe      -0.13849333       7.69727697     150.64137040      -0.00004287       0.00000960       0.00000933        0        0       -1       58       26
Fe       1.27621399       9.21018412     149.32183196      -0.00003869       0.00001467       0.00000372        0        0       -1       58       26
Fe      -0.13846604      10.53204504     150.82169461      -0.00003889       0.00001563       0.00001046        0        0       -1       58       26
Fe       1.27623531      12.04682610     149.50282784      -0.00003586       0.00001688       0.00001002        0        0       -1       58       26
Fe      -0.13843869      13.36022564     151.00529213      -0.00003862       0.00000936      -0.00000045        0        0       -1       58       26
Fe       1.27626808      14.86993615     149.68352759      -0.00004007      -0.00000360       0.00000889        0        0       -1       58       26
Fe      -0.13840751      16.18087124     151.18612324      -0.00003865       0.00000806       0.00002267        0        0       -1       58       26
Fe       1.27630277      17.68152889     149.85843862      -0.00003868       0.00003655       0.00000536        0        0       -1       58       26
Fe      -0.13836748      18.99641121     151.35925368      -0.00003758       0.00001892      -0.00000930        0        0       -1       58       26
Fe       1.27634698      20.48938978     150.02570992      -0.00004050      -0.00000726       0.00002762        0        0       -1       58       26
Fe      -0.13832026      21.81037688     151.52557572      -0.00003896       0.00000273       0.00003492        0        0       -1       58       26
Fe       1.27639358      23.30027523     150.18934591      -0.00003780       0.00003544       0.00000469        0        0       -1       58       26
Fe      16.84172340      24.62577929     151.69026697      -0.00003997       0.00001437       0.00000095       -1        0       -1       58       26
Fe       1.27643953      26.11738964     150.35548640      -0.00003571      -0.00000500       0.00002345        0        0       -1       58       26
Fe      -0.13823487      27.44394556     151.85929004      -0.00004442       0.00000355       0.00003006        0        0       -1       58       26
Fe       1.27647842      28.94026721     150.52934713      -0.00003467       0.00001707       0.00000375        0        0       -1       58       26
Fe      -0.13819878      30.26471067     152.03672841      -0.00003879       0.00001639       0.00000475        0        0       -1       58       26
Fe       1.27651732      31.76606109     150.71330752      -0.00003859      -0.00000061       0.00002432        0        0       -1       58       26
Fe      -0.13816366      33.08750733     152.22284830      -0.00004040      -0.00000112       0.00002275        0        0       -1       58       26
Fe       1.27655163      34.59211011     150.90542110      -0.00003889       0.00000830      -0.00000196        0        0       -1       58       26
Fe      -0.13813167      35.91266607     152.41343544      -0.00004162       0.00002427       0.00001331        0        0       -1       58       26
Fe       1.27658683      37.41798937     151.09863720      -0.00004064       0.00001209       0.00004060        0        0       -1       58       26
Fe      -0.13809865      38.74041131     152.60163551      -0.00004042      -0.00000567       0.00001323        0        0       -1       58       26
Fe       1.27662330      40.24406713     151.28457368      -0.00003762       0.00000449      -0.00001573        0        0       -1       58       26
Fe      -0.13806276      41.56953574     152.78220416      -0.00004028       0.00003377       0.00001467        0        0       -1       58       26
Fe       1.27666531      43.07043825     151.45991652      -0.00004450       0.00001055       0.00003215        0        0       -1       58       26
Fe      -0.13802437      44.39867349     152.95461827      -0.00004011      -0.00000730       0.00001774        0        0       -1       58       26
Fe       1.27670685       0.52954866     151.62778004      -0.00003772       0.00001998      -0.00000210        0        0       -1       58       26
Fe      -0.13798602       1.85902398     153.12271934      -0.00003964       0.00003183       0.00000466        0        0       -1       58       26
Fe       1.27674632       3.35908824     151.79438938      -0.00004221       0.00000612       0.00002561        0        0       -1       58       26
Fe      -0.13794667       4.68751170     153.29178413      -0.00004104       0.00000706       0.00002112        0        0       -1       58       26
Fe       1.27678543       6.19048264     151.96502714      -0.00004286       0.00002001       0.00000726        0        0       -1       58       26
Fe      -0.13790984       7.51556510     153.46582602      -0.00004341       0.00001937       0.00000678        0        0       -1       58       26
Fe       1.27681858       9.02167763     152.14226266      -0.00004502       0.00000880       0.00001743        0        0       -1       58       26
Fe      -0.13787785      10.34266703     153.64568036      -0.00004285       0.00001056       0.00002073        0        0       -1       58       26
Fe       1.27684838      11.85029405     152.32493272      -0.00004620       0.00000939       0.00000999        0        0       -1       58       26
Fe      -0.13784707      13.16857396     153.82871144      -0.00004365       0.00001525       0.00001607        0        0       -1       58       26
Fe       1.27687828      14.67524376     152.50835598      -0.00004034       0.00001972       0.00000519        0        0       -1       58       26
Fe      -0.13781244      15.99319742     154.01012733      -0.00004658       0.00001307       0.00001038        0        0       -1       58       26