12456
Lattice="16.98 0.0 0.0 0.0 64.53392906 0.0 0.0 0.0 129.08074583" Properties=species:S:1:pos:R:3:force:R:3:map_shift:I:3:n_neighb:I:1:Z:I:1 nneightol=1.2 virial="-137.86627356 -82.15824047 -167.37891241 -82.15824047 -104.09890682 -5.8348125 -167.37891241 -5.8348125 91.67097216" energy=-49852.17027376 cutoff=5.3 pbc="T T T"
Fe       0.95584635       6.44884868      96.34337761       0.00263250      -0.00343071      -0.00373621        0        0       -1       55       26
Fe      -0.26542824       2.37630710      98.29726055      -0.00029257       0.00316992       0.00088230        0        0       -1       60       26
Fe       1.17198474       4.38619770      98.28667299       0.00127769       0.00520527      -0.00163772        0        0       -1       55       26
Fe      -0.10485177       4.48110555     100.27024558      -0.00220152       0.00242189       0.00092216        0        0       -1       57       26
Fe       1.35202481       6.47851679     100.17425482       0.00105705      -0.00127135      -0.00172984        0        0       -1       56       26
Fe       0.00220662       6.75050992     102.05117966      -0.00134671      -0.00052635       0.00064546        0        0       -1       57       26
Fe       1.49926702       8.70971784     101.63508479       0.00106562       0.00336481       0.00121260        0        0       -1       57       26
Fe       0.06053548       8.95261450     103.66348937       0.00169609       0.00080058       0.00086546        0        0       -1       58       26
Fe       1.50376123      10.93095547     103.43163151       0.00265503       0.00051363       0.00052146        0        0       -1       58       26
Fe       0.06134724      11.18130858     105.42862985       0.00218118      -0.00202512       0.00155778        0        0       -1       58       26
Fe       1.47942485      13.17355440     105.22203044       0.00017353      -0.00257776      -0.00001887        0        0       -1       58       26
Fe       0.04671645      13.41721089     107.19533961      -0.00075721      -0.00050403      -0.00264647        0        0       -1       58       26
Fe       1.45521687      15.40847479     106.95091863      -0.00097988       0.00178450       0.00231668        0        0       -1       58       26
Fe       0.03269293      15.65059226     108.92460080      -0.00046034       0.00202566      -0.00196234        0        0       -1       58       26
Fe       1.44241483      17.63322556     108.65314107      -0.00109818       0.00414059       0.00034034        0        0       -1       58       26
Fe       0.02421177      17.88031272     110.64223285       0.00197084       0.00110484      -0.00011463        0        0       -1       58       26
Fe       1.43775815      19.86410314     110.39157202       0.00149099       0.00155494       0.00010891        0        0       -1       58       26
Fe       0.02042694      20.11272769     112.37868589       0.00241088      -0.00012205      -0.00085894        0        0       -1       58       26
Fe       1.43640852      22.09844710     112.13381540       0.00148103      -0.00029887       0.00178113        0        0       -1       58       26
Fe       0.01860533      22.34682030     114.11785472       0.00307191      -0.00099144       0.00039027        0        0       -1       58       26
Fe       1.43514228      24.33252883     113.87042328       0.00272685      -0.00055110       0.00210264        0        0       -1       58       26
Fe       0.01756958      24.58038707     115.85453044       0.00108848      -0.00043275       0.00170660        0        0       -1       58       26
Fe       1.43370934      26.56586427     115.60646903       0.00037612      -0.00057237       0.00156435        0        0       -1       58       26
Fe       0.01592518      26.81326516     117.59138720       0.00066809      -0.00031591       0.00080246        0        0       -1       58       26
Fe       1.43109957      28.79890555     117.34398063       0.00126668      -0.00024437       0.00148730        0        0       -1       58       26
Fe       0.01373072      29.04576654     119.32882329       0.00167545       0.00066668       0.00026919        0        0       -1       58       26
Fe       1.42865750      31.03170559     119.08125996       0.00196570       0.00022298      -0.00060257        0        0       -1       58       26
Fe       0.01225942      31.27854373     121.06532638       0.00194138       0.00065068       0.00055578        0        0       -1       58       26
Fe       1.13567697       0.40173932      98.31853068       0.00007590       0.00171925      -0.00331144        0        0       -1       58       26
Fe      -0.02839416       0.51339443     100.56638294      -0.00101888       0.00140378       0.00016603        0        0       -1       57       26
Fe       1.32416210       2.48932283     100.36997471      -0.00212880      -0.00263994      -0.00102828        0        0       -1       59       26
Fe      -0.02160921       2.73658339     102.39840552      -0.00099311      -0.00340941      -0.00051044        0        0       -1       58       26
Fe       1.38501036       4.73105983     102.24074420      -0.00223614       0.00065029      -0.00160243        0        0       -1       58       26
Fe       0.00547487       4.97852797     104.21121055      -0.00025650       0.00101375      -0.00112271        0        0       -1       58       26
Fe       1.43936272       6.97703918     103.99080248      -0.00111957       0.00219885      -0.00102949        0        0       -1       58       26
Fe       0.03050178       7.21616712     105.95265900       0.00022132       0.00147852       0.00355904        0        0       -1       58       26
Fe       1.46283648       9.19814960     105.66741787       0.00003603      -0.00062696       0.00243408        0        0       -1       58       26
Fe       0.03921759       9.44288183     107.66106780      -0.00188745       0.00056777       0.00250689        0        0       -1       58       26
Fe       1.46075001      11.42743355     107.41914358      -0.00037111       0.00052048       0.00064980        0        0       -1       58       26
Fe       0.03563519      11.67380655     109.40598768      -0.00020612       0.00167437       0.00203000        0        0       -1       58       26
Fe       1.45098073      13.66202248     109.17177340      -0.00059649       0.00143844       0.00029029        0        0       -1       58       26
Fe       0.02853045      13.90874914     111.15063076       0.00105078       0.00118848       0.00368583        0        0       -1       58       26
Fe       1.44182744      15.89614354     110.90294431       0.00066348       0.00071115      -0.00118533        0        0       -1       58       26
Fe       0.02213016      16.14298574     112.88369568       0.00167663       0.00078587       0.00051790        0        0       -1       58       26
Fe       1.43577436      18.12808843     112.62893166       0.00316866      -0.00016463      -0.00143059        0        0       -1       58       26
Fe       0.01780947      18.37591301     114.61417937       0.00272787      -0.00051087      -0.00107264        0        0       -1       58       26
Fe       1.43288687      20.36119714     114.36438748       0.00234522      -0.00133298      -0.00016907        0        0       -1       58       26
Fe       0.01578643      20.60904113     116.34932577       0.00156188      -0.00148352      -0.00003021        0        0       -1       58       26
Fe       1.43146498      22.59477942     116.10218506       0.00188203      -0.00141777       0.00014351        0        0       -1       58       26
Fe       0.01479761      22.84185056     118.08667598       0.00008369      -0.00073238      -0.00084379        0        0       -1       58       26
Fe       1.43047773      24.82764800     117.83913873      -0.00000220      -0.00065243      -0.00028259        0        0       -1       58       26
Fe       0.01359946      25.07445153     119.82371941       0.00022031      -0.00009932       0.00069202        0        0       -1       58       26
Fe       1.42873372      27.06016092     119.57643831       0.00113334       0.00010459       0.00021268        0        0       -1       58       26
Fe      16.99221026      27.30722743     121.56155394       0.00154830       0.00027946       0.00037974       -1        0       -1       58       26
Fe       1.42724940      29.29280436     121.31369144       0.00185469       0.00061659       0.00079422        0        0       -1       58       26
Fe       0.01168244      29.54036765     123.29875899       0.00186755      -0.00001768      -0.00157701        0        0       -1       58       26
Fe       1.42675796      31.52593610     123.04957635       0.00172338       0.00064835       0.00171410        0        0       -1       58       26
Fe       0.01216432      31.77379480     125.03417810       0.00157675       0.00047685       0.00094379        0        0       -1       58       26
Fe       1.43230884       0.76306234     102.63423822      -0.00091182      -0.00119160       0.00242755        0        0       -1       57       26
Fe       0.02670107       1.01139012     104.65626115       0.00011661      -0.00039391       0.00248102        0        0       -1       58       26
Fe       1.42299678       2.98801315     104.40877972      -0.00020255       0.00262987      -0.00040324        0        0       -1       58       26
Fe       0.02001154       3.23562761     106.40906704       0.00087390       0.00233218      -0.00269776        0        0       -1       58       26
Fe       1.43499409       5.22375119     106.18841199      -0.00018751       0.00105098      -0.00009034        0        0       -1       58       26
Fe       0.02406370       5.46953796     108.16865447       0.00225276       0.00273513       0.00000796        0        0       -1       58       26
Fe       1.44527380       7.45874488     107.92618270      -0.00019466       0.00070030       0.00216806        0        0       -1       58       26
Fe       0.02733251       7.70393504     109.90537279       0.00089233       0.00097955       0.00135218        0        0       -1       58       26
Fe       1.44715335       9.68874406     109.65001166       0.00007577       0.00083036       0.00081744        0        0       -1       58       26
Fe       0.02651355       9.93617832     111.63645231       0.00079964       0.00067129       0.00110341        0        0       -1       58       26
Fe       1.44356684      11.92151507     111.39100814      -0.00019467       0.00139270       0.00252949        0        0       -1       58       26
Fe       0.02345427      12.16977086     113.37535397      -0.00097521       0.00082312       0.00279549        0        0       -1       58       26
Fe       1.43825676      14.15628540     113.13173301       0.00070611       0.00125294       0.00263565        0        0       -1       58       26
Fe       0.01920926      14.40410245     115.11427000       0.00037194       0.00043147       0.00144021        0        0       -1       58       26
Fe       1.43341484      16.39033502     114.86596400       0.00232712       0.00053827       0.00032576        0        0       -1       58       26
Fe       0.01561206      16.63758680     116.84906687       0.00202950      -0.00026345       0.00033015        0        0       -1       58       26
Fe       1.43044337      18.62340258     116.59870439       0.00230381      -0.00095900      -0.00132661        0        0       -1       58       26
Fe       0.01365125      18.87008882     118.58276600       0.00195584      -0.00011039       0.00110497        0        0       -1       58       26
Fe       1.42906332      20.85590819     118.33383323       0.00147236      -0.00023962       0.00091472        0        0       -1       58       26
Fe       0.01270316      21.10247754     120.31817594       0.00131404       0.00067371       0.00201592        0        0       -1       58       26
Fe       1.42821555      23.08850023     120.07103965       0.00026508       0.00026014      -0.00051861        0        0       -1       58       26
Fe       0.01186912      23.33547497     122.05520428       0.00172084       0.00075746       0.00253357        0        0       -1       58       26
Fe       1.42710193      25.32147937     121.80841288       0.00130448       0.00035559       0.00215515        0        0       -1       58       26
Fe       0.01135117      25.56901007     123.79350755       0.00278333      -0.00021472      -0.00011558        0        0       -1       58       26
Fe       1.42653803      27.55478628     123.54681423       0.00213455      -0.00024070      -0.00211788        0        0       -1       58       26
Fe       0.01194878      27.80261641     125.53183304       0.00277122      -0.00035784      -0.00143267        0        0       -1       58       26
Fe       1.42710470      29.78825606     125.28361972       0.00198921      -0.00011434      -0.00110339        0        0       -1       58       26
Fe       0.01359935      30.03624125     127.26843237       0.00225161      -0.00027952      -0.00026637        0        0       -1       58       26
Fe       1.42853761      32.02186529     127.01889473       0.00175918      -0.00034701       0.00035355        0        0       -1       58       26
Fe       1.44378513       1.25501028     106.65939858      -0.00125344       0.00312083      -0.00012415        0        0       -1       58       26
Fe       0.02741417       1.49977537     108.65314159      -0.00109493       0.00410383       0.00020906        0        0       -1       58       26
Fe       1.43838209       3.48252155     108.40239650       0.00161290       0.00281133      -0.00149064        0        0       -1       58       26
Fe       0.02275869       3.73065102     110.39157396       0.00149562       0.00156582       0.00012552        0        0       -1       58       26
Fe       1.43872358       5.71681747     110.15065861       0.00150636       0.00096572       0.00094417        0        0       -1       58       26
Fe       0.02141128       5.96500437     112.13384794       0.00148266      -0.00023527       0.00204720        0        0       -1       58       26
Fe       1.43856239       7.95112457     111.88725612       0.00243761       0.00004315       0.00207132        0        0       -1       58       26
Fe       0.02014619       8.19912197     113.87057562       0.00272747      -0.00053223       0.00237529        0        0       -1       58       26
Fe       1.43715200      10.18436885     113.62181396       0.00050749      -0.00007681       0.00132528        0        0       -1       58       26
Fe       0.01871118      10.43249547     115.60682090       0.00038592      -0.00069225       0.00147643        0        0       -1       58       26
Fe       1.43435964      12.41802416     115.35965418       0.00008465      -0.00044910       0.00403126        0        0       -1       58       26
Fe       0.01609554      12.66553058     117.34447881       0.00128598      -0.00042824       0.00104328        0        0       -1       58       26
Fe       1.43096708      14.65150493     117.09769580       0.00145617      -0.00033761       0.00081413        0        0       -1       58       26
Fe       0.01364896      14.89826509     119.08171290       0.00196060       0.00012257      -0.00105637        0        0       -1       58       26
Fe       1.42858972      16.88424361     118.83268159       0.00182944      -0.00005162       0.00057634        0        0       -1       58       26
Fe       0.01231003      17.13089860     120.81663583       0.00158639       0.00061477       0.00022322        0        0       -1       58       26
Fe       1.42745014      19.11664419     120.56688503       0.00128945       0.00083374       0.00205291        0        0       -1       58       26
Fe       0.01173401      19.36376000     122.55121229       0.00140036       0.00114890       0.00323749        0        0       -1       58       26
Fe       1.42675394      21.34948001     122.30259720       0.00158402       0.00128319       0.00304368        0        0       -1       58       26
Fe       0.01146128      21.59712328     124.28731624       0.00262292       0.00114170       0.00307743        0        0       -1       58       26
Fe       1.42629226      23.58300435     124.03968423       0.00311853       0.00061153       0.00367657        0        0       -1       58       26
Fe       0.01200676      23.83088649     126.02468615       0.00349155       0.00041437       0.00277755        0        0       -1       58       26
Fe       1.42684137      25.81679840     125.77861750       0.00358087      -0.00021942      -0.00042229        0        0       -1       58       26
Fe       0.01380412      26.06465931     127.76376175       0.00312562       0.00054680       0.00031740        0        0       -1       58       26
Fe       1.42862239      28.05048279     127.51676273       0.00291287       0.00011379       0.00009031        0        0       -1       58       26
Fe       1.43921530       1.74685385     110.64218922       0.00197259       0.00110612      -0.00015608        0        0       -1       58       26
Fe       0.02077808       1.99462193     112.62883581       0.00317283      -0.00009507      -0.00124783        0        0       -1       58       26
Fe       1.43543522       3.97927391     112.37865371       0.00239982      -0.00004345      -0.00060772        0        0       -1       58       26
Fe       0.01789666       4.22775677     114.36436661       0.00233828      -0.00121818       0.00018964        0        0       -1       58       26
Fe       1.43361807       6.21339866     114.11791664       0.00304694      -0.00091252       0.00076973        0        0       -1       58       26
Fe       0.01647803       6.46139447     116.10234367       0.00187123      -0.00138672       0.00033739        0        0       -1       58       26
Fe       1.43258222       8.44701746     115.85479006       0.00106434      -0.00048985       0.00180182        0        0       -1       58       26
Fe       0.01548802       8.69430853     117.83952931       0.00000305      -0.00076688      -0.00052972        0        0       -1       58       26
Fe       1.43093280      10.67991860     117.59186244       0.00067082      -0.00049182       0.00040064        0        0       -1       58       26
Fe       0.01373792      10.92680928     119.57697935       0.00114561      -0.00004168      -0.00035919        0        0       -1       58       26
Fe       1.42873557      12.91238416     119.32937952       0.00167676       0.00050020      -0.00039114        0        0       -1       58       26
Fe       0.01224375      13.15939280     121.31419831       0.00181395       0.00052961       0.00037423        0        0       -1       58       26
Fe       1.42726461      15.14508449     121.06574923       0.00184386       0.00058825       0.00015617        0        0       -1       58       26
Fe       0.01172526      15.39244963     123.04989634       0.00164156       0.00067474       0.00190438        0        0       -1       58       26
Fe       1.42675121      17.37813050     122.80070162       0.00151377       0.00078754       0.00169477        0        0       -1       58       26
Fe       0.01195676      17.62591268     124.78507268       0.00177133       0.00052656       0.00222549        0        0       -1       58       26
Fe       1.42672565      19.61152096     124.53600311       0.00216797       0.00070704       0.00234561        0        0       -1       58       26
Fe       0.01279708      19.85962132     126.52114441       0.00247610      -0.00000417      -0.00126668        0        0       -1       58       26
Fe       1.42736535      21.84520301     126.27241674       0.00297265       0.00028306       0.00115116        0        0       -1       58       26
Fe       0.01462972      22.09338567     128.25762973       0.00253126      -0.00026260       0.00010645        0        0       -1       58       26
Fe       1.42915579      24.07890586     128.01002847       0.00285139       0.00053549       0.00187332        0        0       -1       58       26
Fe       1.43713752       0.00949995     112.88352987       0.00166933       0.00083585       0.00061903        0        0       -1       58       26
Fe       0.01842387       0.25684371     114.86573353       0.00232116       0.00063397       0.00057604        0        0       -1       58       26
Fe       1.43282473       2.24245124     114.61405863       0.00269939      -0.00039717      -0.00076083        0        0       -1       58       26
Fe       0.01545939       2.48996583     116.59861448       0.00228397      -0.00086363      -0.00117550        0        0       -1       58       26
Fe       1.43080675       4.47563523     116.34937548       0.00152443      -0.00140851       0.00013671        0        0       -1       58       26
Fe       0.01407870       4.72255530     118.33399014       0.00147442      -0.00029193       0.00073013        0        0       -1       58       26
Fe       1.42981715       6.70851154     118.08696339       0.00007824      -0.00080075      -0.00102803        0        0       -1       58       26
Fe       0.01322577       6.95520078     120.07144034       0.00032332       0.00006697      -0.00106290        0        0       -1       58       26
Fe       1.42861909       8.94112828     119.82420640       0.00023689      -0.00022787       0.00016239        0        0       -1       58       26
Fe       0.01210795       9.18815238     121.80891642       0.00132705       0.00026910       0.00175730        0        0       -1       58       26
Fe       1.42722754      11.17385366     121.56206865       0.00150007       0.00023043       0.00001489        0        0       -1       58       26
Fe      16.99151884      11.42137461     123.54723680       0.00209268      -0.00015499      -0.00190564       -1        0       -1       58       26
Fe       1.42667151      13.40691752     123.29913903       0.00175092       0.00002212      -0.00141316        0        0       -1       58       26
Fe       0.01202275      13.65475675     125.28390239       0.00193105       0.00008401      -0.00077659        0        0       -1       58       26
Fe       1.42708323      15.64027670     125.03442770       0.00153725       0.00063450       0.00133314        0        0       -1       58       26
Fe       0.01335905      15.88832742     127.01917177       0.00201134      -0.00008704       0.00015704        0        0       -1       58       26
Fe       1.42815177      17.87396564     126.76980978       0.00200839       0.00000358       0.00044786        0        0       -1       58       26
Fe       0.01544285      18.12202900     128.75455937       0.00225091      -0.00032468       0.00088829        0        0       -1       58       26
Fe       1.43006166      20.10774857     128.50596589       0.00227871      -0.00037936      -0.00055773        0        0       -1       58       26
Fe       1.43062972       0.50410496     116.84880561       0.00198896      -0.00016854       0.00056052        0        0       -1       58       26
Fe       0.01359803       0.75078911     118.83242911       0.00183472      -0.00002139       0.00074919        0        0       -1       58       26
Fe       1.42867140       2.73669492     118.58272640       0.00194923      -0.00011480       0.00108549        0        0       -1       58       26
Fe       0.01245524       2.98328920     120.56689486       0.00138015       0.00069301       0.00192354        0        0       -1       58       26
Fe       1.42772548       4.96917357     120.31841714       0.00136861       0.00045338       0.00152525        0        0       -1       58       26
Fe       0.01176730       5.21618546     122.30284519       0.00167804       0.00100616       0.00248230        0        0       -1       58       26
Fe       1.42689636       7.20219271     122.05564741       0.00174091       0.00049835       0.00180199        0        0       -1       58       26
Fe       0.01130474       7.44969433     124.04005039       0.00311572       0.00043415       0.00331014        0        0       -1       58       26
Fe       1.42635720       9.43566558     123.79397793       0.00272943      -0.00025458      -0.00030657        0        0       -1       58       26
Fe       0.01181037       9.68341943     125.77904939       0.00343348      -0.00030086      -0.00093261        0        0       -1       58       26
Fe       1.42688471      11.66916665     125.53220954       0.00265781      -0.00023189      -0.00134322        0        0       -1       58       26
Fe       0.01346643      11.91700684     127.51715606       0.00298227       0.00018205      -0.00067560        0        0       -1       58       26
Fe       1.42840419      13.90269790     127.26866285       0.00247344       0.00004943      -0.00014643        0        0       -1       58       26
Fe       1.42732452       0.99747164     120.81642272       0.00166484       0.00056890       0.00022117        0        0       -1       58       26
Fe       0.01176687       1.24471409     122.80053132       0.00165408       0.00066515       0.00135488        0        0       -1       58       26
Fe       1.42676390       3.23041866     122.55126130       0.00149426       0.00091103       0.00268558        0        0       -1       58       26
Fe       0.01178011       3.47815406     124.53600244       0.00218369       0.00051089       0.00178583        0        0       -1       58       26
Fe       1.42649812       5.46379320     124.28747590       0.00261737       0.00098265       0.00280007        0        0       -1       58       26
Fe       0.01242362       5.71180485     126.27244812       0.00276726       0.00026177       0.00121973        0        0       -1       58       26
Fe       1.42700348       7.69751041     126.02491040       0.00332807       0.00031376       0.00264901        0        0       -1       58       26
Fe       0.01411182       7.94544100     128.01011719       0.00264247       0.00044199       0.00164211        0        0       -1       58       26
Fe       1.42867347       9.93120972     127.76406082       0.00309468       0.00044993      -0.00033186        0        0       -1       58       26
Fe       1.42703228       1.49249552     124.78487624       0.00178826       0.00035507       0.00189508        0        0       -1       58       26
Fe       0.01330834       1.74053006     126.76952444       0.00174752      -0.00011417       0.00076779        0        0       -1       58       26
Fe       1.42790128       3.72619863     126.52097701       0.00221723      -0.00009403      -0.00111028        0        0       -1       58       26
Fe       0.01519237       3.97426396     128.50567772       0.00181828      -0.00049045      -0.00005176        0        0       -1       58       26
Fe       1.42965829       5.95990154     128.25750493       0.00219575      -0.00034964       0.00027078        0        0       -1       58       26
Fe       1.43062860       1.98854300     128.75418322       0.00176533      -0.00039536       0.00170718        0        0       -1       58       26
Fe      -0.18584299       6.41475208      98.26928044       0.00109431       0.00375621       0.00323831        0        0       -1       52       26
Fe       1.85861572       8.47710528      97.27033266      -0.00387299      -0.00080163       0.00132153        0        0       -1       58       26
Fe       0.17729517       8.51096011      99.54383641      -0.00278734      -0.00034272       0.00225576        0        0       -1       59       26
Fe       1.66100214      10.49257410      99.38135453      -0.00016123       0.00194608      -0.00050895        0        0       -1       59       26
Fe       0.13978745      10.68059516     101.42113671       0.00085946       0.00254609      -0.00189568        0        0       -1       58       26
Fe       1.57415378      12.66371474     101.29009479       0.00078317       0.00139522      -0.00315040        0        0       -1       58       26
Fe       0.09725131      12.92465142     103.25538409       0.00012244       0.00140004      -0.00017823        0        0       -1       58       26
Fe       1.49038622      14.93760090     103.04689011       0.00053258       0.00028623       0.00449494        0        0       -1       58       26
Fe       0.05191347      15.17051961     104.98807913       0.00095534      -0.00135735       0.00502233        0        0       -1       58       26
Fe       1.44169829      17.14483896     104.65623809       0.00011775      -0.00036038       0.00252152        0        0       -1       58       26
Fe       0.02878432      17.38845672     106.65937790      -0.00125852       0.00316480      -0.00003085        0        0       -1       58       26
Fe       1.43501010      19.36907572     106.40901371       0.00087268       0.00236839      -0.00260277        0        0       -1       58       26
Fe       0.02338143      19.61596936     108.40236058       0.00160556       0.00284017      -0.00139018        0        0       -1       58       26
Fe       1.43906397      21.60299108     108.16858743       0.00225037       0.00274997       0.00007626        0        0       -1       58       26
Fe       0.02372093      21.85026858     110.15061359       0.00150295       0.00094283       0.00088922        0        0       -1       58       26
Fe       1.44233283      23.83739268     109.90529727       0.00089024       0.00093349       0.00123243        0        0       -1       58       26
Fe       0.02355686      24.08456362     111.88716681       0.00244801      -0.00001527       0.00180830        0        0       -1       58       26