3840
Lattice="16.98 0.0 0.0 0.0 36.24168318 0.0 0.0 0.0 71.06502584" Properties=species:S:1:pos:R:3:force:R:3:map_shift:I:3:n_neighb:I:1:Z:I:1 virial="-128.84487105 44.16258511 -0.3401597 44.16258511 -86.62770057 0.43704993 -0.3401597 0.43704993 -74.19657538" cutoff=5.3 adsorbate_info=T nneightol=1.2 energy=-15339.36464419 pbc="T T T"
Fe      16.21038464      23.38913036      23.69126127       0.00047788      -0.00100833       0.00093529       -1       -1        0       58       26 
Fe       0.28524558       2.18631362      54.10240113      -0.00032157      -0.00068236      -0.00067022        0        0       -1       57       26 
Fe       1.68740560       4.15861636      54.07874944       0.00062518      -0.00252084       0.00009317        0        0       -1       60       26 
Fe       0.11028131       4.26756959      56.17583888       0.00058324      -0.00136106      -0.00062813        0        0       -1       59       26 
Fe       1.55123049       6.26238008      56.09175416       0.00135321      -0.00169092      -0.00095079        0        0       -1       58       26 
Fe       0.06339222       6.47354017      58.09696796       0.00061483      -0.00026754      -0.00175586        0        0       -1       58       26 
Fe       1.47082581       8.47934078      57.98606900       0.00076575      -0.00089178      -0.00274256        0        0       -1       58       26 
Fe       0.01691340       8.70017339      59.94842893      -0.00021639       0.00033921      -0.00314116        0        0       -1       58       26 
Fe       1.40664702      10.70636832      59.75357678      -0.00044984      -0.00046499      -0.00194130        0        0       -1       58       26 
Fe      -0.01783102      10.91925250      61.71444761      -0.00135103       0.00095685      -0.00241799        0        0       -1       58       26 
Fe       1.37768844      12.90564277      61.44666184      -0.00099409       0.00116702       0.00138284        0        0       -1       58       26 
Fe      -0.03237673      13.12592478      63.44298653      -0.00084868       0.00161814       0.00127583        0        0       -1       58       26 
Fe       1.37572881      15.11311047      63.21783094      -0.00098998       0.00171041       0.00220248        0        0       -1       58       26 
Fe      -0.03374019      15.33589583      65.21037055      -0.00043381       0.00135208       0.00204743        0        0       -1       58       26 
Fe       1.38149352      17.32567801      64.99346385      -0.00033713       0.00144113       0.00043512        0        0       -1       58       26 
Fe      -0.03141402      17.54846672      66.98049762       0.00040641       0.00068525       0.00045968        0        0       -1       58       26 
Fe       1.19406728       0.16019287      55.05668354      -0.00291074      -0.00235774       0.00221413        0        0       -1       55       26 
Fe      -0.11510207       0.29773398      56.96332916      -0.00032073      -0.00154999      -0.00305244        0        0       -1       56       26 
Fe       1.46174990       2.29145419      56.36996187      -0.00021294      -0.00166710      -0.00163702        0        0       -1       57       26 
Fe      -0.00242894       2.51448456      58.45735622       0.00066870       0.00011708      -0.00174711        0        0       -1       57       26 
Fe       1.45664053       4.48509313      58.23141723       0.00110095      -0.00013519      -0.00112657        0        0       -1       58       26 
Fe       0.01041383       4.71248998      60.26310435       0.00038150       0.00083018      -0.00162425        0        0       -1       58       26 
Fe       1.43726029       6.69973775      60.09656152       0.00053319       0.00053168      -0.00206481        0        0       -1       58       26 
Fe      -0.00021229       6.92443967      62.09381487      -0.00010592       0.00132145      -0.00242627        0        0       -1       58       26 
Fe       1.41092845       8.92037310      61.92079004      -0.00037003       0.00101531      -0.00323218        0        0       -1       58       26 
Fe      -0.01537227       9.14264438      63.89909499      -0.00038510       0.00100973      -0.00307334        0        0       -1       58       26 
Fe       1.39224065      11.13754858      63.68754581      -0.00066532       0.00115676      -0.00168534        0        0       -1       58       26 
Fe      -0.02589484      11.35894428      65.66740036       0.00007047       0.00076696      -0.00154237        0        0       -1       58       26 
Fe       1.38440461      13.34780037      65.43490626      -0.00020908       0.00140381       0.00124725        0        0       -1       58       26 
Fe      -0.03043316      13.57131301      67.42524550       0.00080624       0.00057783       0.00116822        0        0       -1       58       26 
Fe       1.38298000      15.55928338      67.20165243       0.00090814       0.00111259       0.00179604        0        0       -1       58       26 
Fe      -0.03161277      15.78339003      69.19260219       0.00183695       0.00044828       0.00164685        0        0       -1       58       26 
Fe       1.38341871      17.77164451      68.96950423       0.00179340       0.00050087       0.00014314        0        0       -1       58       26 
Fe       1.35268492       0.55446949      58.85812826      -0.00050651       0.00016176      -0.00125177        0        0       -1       57       26 
Fe      -0.04107438       0.76173945      60.80901563       0.00015886       0.00100274      -0.00208260        0        0       -1       58       26 
Fe       1.40187330       2.73715737      60.49366887       0.00001886       0.00078544      -0.00186473        0        0       -1       58       26 
Fe      -0.01836999       2.95709380      62.50870913      -0.00031708       0.00146513      -0.00147421        0        0       -1       58       26 
Fe       1.40897448       4.93728447      62.27968686      -0.00026518       0.00125935      -0.00131966        0        0       -1       58       26 
Fe      -0.01572607       5.16169050      64.28676016      -0.00041145       0.00101867      -0.00133300        0        0       -1       58       26 
Fe       1.40211516       7.14934549      64.08838150      -0.00048615       0.00091216      -0.00216419        0        0       -1       58       26 
Fe      -0.02060896       7.37460612      66.08097871       0.00009045       0.00025208      -0.00196415        0        0       -1       58       26 
Fe       1.39310628       9.36634817      65.88097888      -0.00006614       0.00050421      -0.00268580        0        0       -1       58       26 
Fe      -0.02612652       9.59088261      67.86525201       0.00085895      -0.00035424      -0.00251023        0        0       -1       58       26 
Fe       1.38700523      11.58203255      67.65082140       0.00073771       0.00031938      -0.00132557        0        0       -1       58       26 
Fe      -0.02952083      11.80616566      69.63650866       0.00172178      -0.00041307      -0.00125629        0        0       -1       58       26 
Fe       1.38421031      13.79514745      69.41523929       0.00189828       0.00036122       0.00106212        0        0       -1       58       26 
Fe       1.38307115       0.97605099      62.78128889      -0.00063369       0.00144655      -0.00112132        0        0       -1       58       26 
Fe      -0.02908670       1.19476012      64.76387559      -0.00047722       0.00105511      -0.00094749        0        0       -1       58       26 
Fe       1.39302436       3.17863584      64.51326930      -0.00049463       0.00109002      -0.00102120        0        0       -1       58       26 
Fe      -0.02516819       3.40165296      66.51230984      -0.00002360       0.00020404      -0.00062020        0        0       -1       58       26 
Fe       1.39315900       5.38660754      66.28726748      -0.00007565       0.00016747      -0.00075401        0        0       -1       58       26 
Fe      -0.02609826       5.61154553      68.28371436       0.00066593      -0.00033816      -0.00028567        0        0       -1       58       26 
Fe       1.38977312       7.59986929      68.07173354       0.00061555      -0.00037385      -0.00144736        0        0       -1       58       26 
Fe      -0.02821158       7.82475649      70.06125129       0.00120995      -0.00107171      -0.00106776        0        0       -1       58       26 
Fe       1.38670887       9.81528369      69.85046175       0.00121219      -0.00076022      -0.00217299        0        0       -1       58       26 
Fe       1.38593032       1.41611227      66.75137425       0.00042316       0.00053124      -0.00072556        0        0       -1       58       26 
Fe      -0.02996325       1.63893995      68.74096499       0.00110633       0.00011962      -0.00041020        0        0       -1       58       26 
Fe       1.38696613       3.62528261      68.50823028       0.00095220       0.00000028      -0.00039697        0        0       -1       58       26 
Fe      -0.03002123       3.84904479      70.50211069       0.00138178      -0.00067844       0.00026883        0        0       -1       58       26 
Fe       1.38614176       5.83600153      70.27754697       0.00116806      -0.00082836       0.00022921        0        0       -1       58       26 
Fe       1.38358228       1.86200418      70.73179825       0.00211715      -0.00038818      -0.00042754        0        0       -1       58       26 
Fe       0.25889503       6.16501487      54.07145565       0.00059313      -0.00194424      -0.00061910        0        0       -1       58       26 
Fe       1.65330793       8.17558807      54.05868227       0.00054879      -0.00234726      -0.00231944        0        0       -1       55       26 
Fe       0.12602386       8.25994406      56.02603154       0.00074711      -0.00218338      -0.00215873        0        0       -1       57       26 
Fe       1.48863178      10.25843009      55.93978512      -0.00027829      -0.00226955      -0.00173209        0        0       -1       56       26 
Fe       0.01397460      10.50521402      57.81645270       0.00063090      -0.00106254      -0.00178365        0        0       -1       57       26 
Fe       1.34369423      12.46958261      57.41133655      -0.00009205      -0.00091987       0.00199035        0        0       -1       57       26 
Fe      -0.04795325      12.68664778      59.44058851      -0.00065886      -0.00008445       0.00159250        0        0       -1       58       26 
Fe       1.33783636      14.66744705      59.22017458      -0.00070753       0.00008572       0.00209460        0        0       -1       58       26 
Fe      -0.05198129      14.89111553      61.22223646      -0.00074508       0.00129449       0.00203907        0        0       -1       58       26 
Fe       1.36062313      16.88468063      61.02850573      -0.00074800       0.00102432      -0.00004419        0        0       -1       58       26 
Fe      -0.03986479      17.10438626      63.00906764      -0.00070713       0.00155386       0.00047720        0        0       -1       58       26 
Fe       0.18080761      10.19876685      54.03859607       0.00019813      -0.00296859      -0.00091761        0        0       -1       52       26 
Fe      14.76984680      23.16497367      25.69331705       0.00092468      -0.00215805       0.00081556       -1       -1        0       58       26 
Fe      -0.16441135      12.29067945      55.32209803       0.00190908      -0.00213212       0.00282186        0        0       -1       59       26 
Fe       1.18043203      14.27066022      55.16014260       0.00043787      -0.00183480       0.00331947        0        0       -1       59       26 
Fe      -0.12723949      14.44169080      57.20472474      -0.00019617      -0.00108214       0.00228651        0        0       -1       58       26 
Fe       1.26926316      16.42437289      57.07970653      -0.00058959      -0.00096480      -0.00084603        0        0       -1       58       26 
Fe      -0.08543783      16.66191058      59.05371068      -0.00009226       0.00038558       0.00028582        0        0       -1       58       26 
Fe      16.18737151      21.17151210      25.49811444       0.00072470      -0.00206062      -0.00052113       -1       -1        0       58       26 
Fe      14.75773980      20.95087419      27.47855963       0.00076356      -0.00197931      -0.00045805       -1       -1        0       58       26 
Fe      -0.25955533      16.26975942      55.09452601      -0.00116796      -0.00178139       0.00115786        0        0       -1       56       26 
Fe      -0.03176336      -0.12589115      70.95932886       0.00223642      -0.00002531       0.00051942        0        0       -1       58       26 
Fe       0.42998288       4.20248511      51.98389185       0.00106998      -0.00074257       0.00051121        0        0       -1       59       26 
Fe       1.80755805       6.20176544      52.04803138       0.00066664      -0.00099987      -0.00062529        0        0       -1       58       26 
Fe       0.48258298       6.35709933      50.03667466       0.00079323      -0.00024007      -0.00074138        0        0       -1       58       26 
Fe       1.89778550       8.34804402      50.12467229       0.00012099      -0.00134268      -0.00262527        0        0       -1       58       26 
Fe       0.53849667       8.57995565      48.16615744      -0.00005118      -0.00023472      -0.00276751        0        0       -1       58       26 
Fe       1.98529272      10.60024576      48.34530930      -0.00096970      -0.00026698      -0.00231467        0        0       -1       57       26 
Fe       0.58770088      10.80455407      46.40460412      -0.00077210       0.00009678      -0.00107931        0        0       -1       58       26 
Fe       2.03282033      12.78620453      46.71287338      -0.00069573      -0.00065491       0.00273419        0        0       -1       58       26 
Fe       0.60925493      13.00109721      44.70759704      -0.00031723       0.00048206       0.00278631        0        0       -1       58       26 
Fe       2.03469767      14.98579455      44.93981401       0.00030090       0.00017210       0.00345364        0        0       -1       58       26 
Fe       0.60942437      15.20248003      42.94114556       0.00065602       0.00165083       0.00334230        0        0       -1       58       26 
Fe       2.02439453      17.19151961      43.16036797       0.00107562       0.00149969       0.00167653        0        0       -1       58       26 
Fe       0.60423365      17.40852104      41.17049735       0.00059894       0.00207186       0.00140523        0        0       -1       58       26 
Fe       2.01614292       1.27629231      41.40053964       0.00067581       0.00185188       0.00052513        0        0       -1       58       26 
Fe       0.60075278       1.49494423      39.40977244      -0.00062963       0.00137872       0.00062609        0        0       -1       58       26 
Fe       1.91167084       2.22317863      51.80856492       0.00130787      -0.00134193      -0.00034424        0        0       -1       59       26 
Fe       0.57388085       2.40223343      49.70564628       0.00003286       0.00015169       0.00038066        0        0       -1       57       26 
Fe       1.92993471       4.37399811      49.91892617       0.00063080      -0.00000949       0.00069821        0        0       -1       58       26 
Fe       0.55346224       4.59017375      47.88398883       0.00073036       0.00019954       0.00050884        0        0       -1       58       26 
Fe       1.94994692       6.57760290      48.03665599       0.00061258      -0.00010035      -0.00094979        0        0       -1       58       26 
Fe       0.56469261       6.79977456      46.04232513       0.00023505       0.00050281      -0.00134134        0        0       -1       58       26 
Fe       1.98347299       8.79987243      46.20346746      -0.00019155       0.00041208      -0.00241474        0        0       -1       58       26 
Fe       0.58433203       9.01569521      44.23156982      -0.00092453       0.00125101      -0.00209533        0        0       -1       58       26 
Fe       2.00964428      11.01466643      44.44156829      -0.00065373       0.00076535      -0.00022664        0        0       -1       58       26 
Fe       0.59784323      11.22740209      42.46684339      -0.00080713       0.00234571       0.00034099        0        0       -1       58       26 
Fe       2.01956456      13.21627837      42.71032175       0.00004041       0.00161048       0.00301855        0        0       -1       58       26 
Fe       0.60236736      13.43276897      40.71691907      -0.00034088       0.00278399       0.00295107        0        0       -1       58       26 
Fe       2.01936055      15.42031276      40.94586508       0.00044444       0.00214453       0.00293038        0        0       -1       58       26 
Fe       0.60225245      15.63996353      38.95220261      -0.00068877       0.00198259       0.00259099        0        0       -1       58       26 
Fe       2.01697652      17.62789313      39.17986599      -0.00028027       0.00151937       0.00093807        0        0       -1       58       26 
Fe       0.60122718      17.84921222      37.18873318      -0.00162307       0.00058559       0.00073879        0        0       -1       58       26 
Fe       2.01562808       1.71605942      37.41875543      -0.00152140       0.00034195       0.00041535        0        0       -1       58       26 
Fe       2.00160988       2.61470723      47.66298070       0.00032344       0.00019486       0.00065708        0        0       -1       58       26 
Fe       0.59110107       2.82920674      45.64457819       0.00092006       0.00061935       0.00058928        0        0       -1       58       26 
Fe       1.98875143       4.81038037      45.86622467       0.00077404       0.00060598       0.00036622        0        0       -1       58       26 
Fe       0.58533998       5.02929522      43.85899751       0.00039486       0.00132729       0.00021292        0        0       -1       58       26 
Fe       1.99622251       7.01906840      44.05002326      -0.00022649       0.00135993      -0.00120585        0        0       -1       58       26 
Fe       0.59051949       7.23795708      42.05935053      -0.00102826       0.00224968      -0.00133501        0        0       -1       58       26 
Fe       2.00739955       9.23242886      42.25378143      -0.00120580       0.00224272      -0.00166869        0        0       -1       58       26 
Fe       0.59649292       9.45059797      40.27233713      -0.00142386       0.00307071      -0.00171485        0        0       -1       58       26 
Fe       2.01417879      11.44377671      40.48568154      -0.00104634       0.00279929       0.00058706        0        0       -1       58       26 
Fe       0.59952559      11.66310972      38.50109342      -0.00133504       0.00255283       0.00030722        0        0       -1       58       26 
Fe       2.01605551      13.65250117      38.72512385      -0.00091008       0.00213128       0.00251104        0        0       -1       58       26 
Fe       0.59993180      13.87449130      36.73340864      -0.00157898       0.00104719       0.00206502        0        0       -1       58       26 
Fe       2.01568305      15.86196831      36.95938334      -0.00141029       0.00073566       0.00184781        0        0       -1       58       26 
Fe       2.00909983       3.04497918      43.63787942       0.00084509       0.00140771       0.00074794        0        0       -1       58       26 
Fe       0.59648461       3.26226711      41.63758446       0.00018570       0.00175239       0.00081305        0        0       -1       58       26 
Fe       2.00730301       5.24827571      41.85822320      -0.00044135       0.00197537       0.00024260        0        0       -1       58       26 
Fe       0.59634260       5.46861773      39.86192016      -0.00120394       0.00185536       0.00007818        0        0       -1       58       26 
Fe       2.01067230       7.45819874      40.06963160      -0.00171436       0.00229840      -0.00121677        0        0       -1       58       26 
Fe       0.59792811       7.67996288      38.08103655      -0.00169892       0.00182391      -0.00162209        0        0       -1       58       26 
Fe       2.01348587       9.67154801      38.28842555      -0.00187176       0.00226548      -0.00179038        0        0       -1       58       26 
Fe       0.59846144       9.89434603      36.30333921      -0.00163853       0.00124927      -0.00218975        0        0       -1       58       26 
Fe       2.01402459      11.88543710      36.51427650      -0.00162705       0.00127535      -0.00002237        0        0       -1       58       26 
Fe       2.01343453       3.48174394      39.64105526      -0.00085905       0.00129979       0.00087492        0        0       -1       58       26 
Fe       0.59971789       3.70322181      37.64701690      -0.00179436       0.00054738       0.00082871        0        0       -1       58       26 
Fe       2.01369878       5.69073411      37.86829976      -0.00204945       0.00096042       0.00009306        0        0       -1       58       26 
Fe       0.59937651       5.91398821      35.87672802      -0.00196894       0.00031991      -0.00010664        0        0       -1       58       26 
Fe       2.01383898       7.90321824      36.09303258      -0.00202948       0.00092846      -0.00182591        0        0       -1       58       26 
Fe       2.01517771       3.92611470      35.65451350      -0.00208278      -0.00013346       0.00090527        0        0       -1       58       26 
Fe       0.38639390       8.20453872      52.08959136       0.00028784      -0.00136228      -0.00228288        0        0       -1       56       26 
Fe       1.84662449      10.21719205      52.12318882       0.00131834      -0.00075434       0.00109374        0        0       -1       54       26 
Fe       0.52398189      10.34598936      50.22950789      -0.00154846      -0.00100350      -0.00356233        0        0       -1       56       26 
Fe       2.11137617      12.34460534      50.80868909      -0.00128464      -0.00116424       0.00262134        0        0       -1       57       26 
Fe       0.63571659      12.56585556      48.73722312      -0.00136744      -0.00122643       0.00209500        0        0       -1       57       26 
Fe       2.09417016      14.54272115      48.95856359      -0.00167993      -0.00112332       0.00315756        0        0       -1       58       26 
Fe       0.63989782      14.76734076      46.94444036      -0.00075900      -0.00065019       0.00323038        0        0       -1       58       26 
Fe       2.05948368      16.76010472      47.13320617      -0.00072842      -0.00039933       0.00190952        0        0       -1       58       26 
Fe       0.62091946      16.97574764      45.14839736       0.00054814       0.00041402       0.00171212        0        0       -1       58       26 
Fe       2.02546862       0.84774045      45.37351232       0.00059396       0.00057382       0.00060928        0        0       -1       58       26 
Fe       0.60364155       1.06054182      43.38938204       0.00111683       0.00139252       0.00074911        0        0       -1       58       26 
Fe       0.97122699      12.25364989      53.05518038       0.00051975      -0.00192708       0.00463114        0        0       -1       57       26 
Fe      14.53715888      27.85585989      18.50842734       0.00104561       0.00265609      -0.00444458       -1       -1        0       52       26 
Fe       0.76134263      14.32110437      50.99222605      -0.00187917      -0.00160583       0.00291105        0        0       -1       59       26 
Fe       2.19194975      16.31252521      51.09065895      -0.00229301      -0.00118198       0.00115186        0        0       -1       57       26 
Fe       0.69029678      16.53917601      49.11140601      -0.00165624      -0.00063259       0.00139108        0        0       -1       58       26 
Fe       2.07367510       0.43860513      49.29556016      -0.00122269      -0.00000225      -0.00028890        0        0       -1       57       26 
Fe       0.62552261       0.63904141      47.34643940      -0.00033759      -0.00008386       0.00115990        0        0       -1       58       26 
Fe       0.93361181      16.23262485      53.08494996      -0.00170381      -0.00215388       0.00007434        0        0       -1       55       26 
Fe       2.28490771      18.26093481      53.09939404      -0.00009030      -0.00225985      -0.00481008        0       -1       -1       52       26 
Fe       0.73485932       0.18805053      51.18291616      -0.00174597      -0.00083154       0.00181310        0        0       -1       56       26 
Fe      16.57716220      25.80036175      17.52632787       0.00089056       0.00302291       0.00289105       -1       -1        0       57       26 
Fe       0.28183820      17.74747271      18.56369456       0.00026556       0.00113034       0.00034656        0        0        0       57       26 
Fe       1.70946631      15.77545155      18.54116341      -0.00024857       0.00155301       0.00141013        0        0        0       60       26 
Fe       0.45628912      15.66768689      20.63793026      -0.00041247       0.00106225       0.00108925        0        0        0       59       26 
Fe       1.84538072      13.67235720      20.55505945      -0.00043370       0.00182007       0.00059881        0        0        0       58       26 
Fe       0.50368079      13.46215770      22.56022638      -0.00027734       0.00019718       0.00004121        0        0        0       58       26 
Fe       1.92638289      11.45612289      22.45232754      -0.00027281       0.00052212      -0.00282484        0        0        0       58       26 
Fe       0.55071521      11.23572037      24.41463431       0.00009813      -0.00107598      -0.00269638        0        0        0       58       26 
Fe       1.99125499       9.22952631      24.22304333       0.00059598      -0.00062642      -0.00361558        0        0        0       58       26 
Fe       0.58595633       9.01594726      26.18373987       0.00048461      -0.00170982      -0.00293963        0        0        0       58       26 
Fe       2.02065827       7.02958668      25.91774261       0.00045840      -0.00213906      -0.00021418        0        0        0       58       26 
Fe       0.60068330       6.80808244      27.91384388       0.00052812      -0.00149181      -0.00003490        0        0        0       58       26 
Fe       2.02263720       4.82080555      27.68881994       0.00048801      -0.00150717       0.00082710        0        0        0       58       26 
Fe       0.60211097       4.59714295      29.68103505       0.00009679      -0.00070913       0.00115329        0        0        0       58       26 
Fe       2.01673678       2.60721742      29.46271833       0.00019920      -0.00039175      -0.00017381        0        0        0       58       26 
Fe       0.59988351       2.38432696      31.44942239      -0.00061283       0.00001444       0.00013058        0        0        0       58       26 
Fe       2.20457844       1.65205005      19.52350076       0.00461886       0.00206984       0.00420997        0        0        0       55       26 
Fe       0.68328729       1.51730823      21.43129107       0.00165924       0.00100524      -0.00158255        0        0        0       56       26 
Fe       1.93436992      17.64343170      20.83314646       0.00029533       0.00190026      -0.00032260        0        0        0       57       26 
Fe       0.56920918      17.42143842      22.92080699       0.00040253      -0.00059134      -0.00045454        0        0        0       57       26 
Fe       1.93978559      15.45060005      22.69362315       0.00016142      -0.00007031       0.00099810        0        0        0       58       26 
Fe       0.55641133      15.22335603      24.72529947       0.00072315      -0.00162542       0.00075669        0        0        0       58       26 
Fe       1.95960802      13.23615063      24.55977803       0.00032340      -0.00138091      -0.00008241        0        0        0       58       26 
Fe       0.56749904      13.01080639      26.55705877       0.00090037      -0.00186599      -0.00051902        0        0        0       58       26 
Fe       1.98666972      11.01502885      26.38692691       0.00057496      -0.00179299      -0.00266276        0        0        0       58       26 
Fe       0.58324639      10.79168931      28.36532156       0.00061976      -0.00124399      -0.00265837        0        0        0       58       26 
Fe       2.00590178       8.79654793      28.15681329       0.00047404      -0.00120137      -0.00259944        0        0        0       58       26 
Fe       0.59412721       8.57430107      30.13668237      -0.00001403      -0.00026506      -0.00247113        0        0        0       58       26 
Fe       2.01389959       6.58486858      29.90576197       0.00008676      -0.00016995       0.00000296        0        0        0       58       26 
Fe       0.59882718       6.36141191      31.89605693      -0.00076115       0.00001252       0.00002702        0        0        0       58       26 
Fe       2.01530654       4.37296572      31.67215125      -0.00071601       0.00016392       0.00111246        0        0        0       58       26 
Fe       0.60013298       4.14956513      33.66311839      -0.00162193      -0.00034450       0.00092096        0        0        0       58       26 