7008
Lattice="16.98 0.0 0.0 0.0 48.68916101 0.0 0.0 0.0 96.43649608" Properties=species:S:1:pos:R:3:force:R:3:map_shift:I:3:n_neighb:I:1:Z:I:1 nneightol=1.2 virial="-176.07014661 29.77296569 -0.86492875 29.77296569 -133.30919424 23.79158198 -0.86492875 23.79158198 -0.17732552" energy=-28011.55049771 cutoff=5.3 pbc="T T T"
Fe       0.87380767      12.42387801      72.17318638      -0.00056976       0.00078735      -0.00152912        0        0       -1       52       26 
Fe       0.06389707       2.35884695      73.37979488       0.00088961       0.00105294      -0.00030124        0        0       -1       59       26 
Fe       1.52033805       4.34283859      73.20924419       0.00234241      -0.00136159       0.00055479        0        0       -1       56       26 
Fe       0.00499498       4.57664270      75.22005781       0.00124673      -0.00002772       0.00023730        0        0       -1       58       26 
Fe       1.39825066       6.56060248      75.05262438       0.00112633      -0.00038382      -0.00012829        0        0       -1       56       26 
Fe      -0.04689723       6.91065658      76.93713034       0.00006122       0.00061561      -0.00046007        0        0       -1       57       26 
Fe       1.32098261       8.85543078      76.48842124      -0.00067169       0.00049138      -0.00010803        0        0       -1       57       26 
Fe      -0.06776138       9.19275939      78.49576258      -0.00083896       0.00074789      -0.00038671        0        0       -1       58       26 
Fe       1.33826466      11.16593704      78.18866071      -0.00106303       0.00064710      -0.00012277        0        0       -1       58       26 
Fe      -0.05446117      11.49895104      80.16184399      -0.00035676       0.00076849      -0.00036811        0        0       -1       58       26 
Fe       1.36801036      13.47829658      79.84488103      -0.00077673       0.00087510      -0.00088315        0        0       -1       58       26 
Fe      -0.03859740      13.80635828      81.80776664      -0.00100157       0.00046234      -0.00071571        0        0       -1       58       26 
Fe       1.38241857      15.77630299      81.45690240      -0.00082674       0.00034479      -0.00120311        0        0       -1       58       26 
Fe      -0.03080529      16.10721905      83.43600633      -0.00078306       0.00037518      -0.00109765        0        0       -1       58       26 
Fe       1.38499898      18.07972595      83.10676310      -0.00048656       0.00032087      -0.00042989        0        0       -1       58       26 
Fe      -0.02805344      18.41081809      85.08193439      -0.00067515       0.00016357      -0.00050918        0        0       -1       58       26 
Fe       1.38574594      20.38426483      84.75345089      -0.00069256       0.00034158      -0.00059300        0        0       -1       58       26 
Fe      -0.02612680      20.71517839      86.72716007      -0.00112228      -0.00008107      -0.00068016        0        0       -1       58       26 
Fe       1.38753587      22.68777715      86.39600154      -0.00091560       0.00003068      -0.00031226        0        0       -1       58       26 
Fe      -0.02407999      23.01924595      88.37116451      -0.00082046      -0.00017198      -0.00017718        0        0       -1       58       26 
Fe       1.25227413       0.33168019      74.05940260      -0.00008919      -0.00010423       0.00047680        0        0       -1       56       26 
Fe      -0.08784884       0.66805344      75.93353462      -0.00067097       0.00102750       0.00042635        0        0       -1       57       26 
Fe       1.38807696       2.61340130      75.47277824      -0.00020868      -0.00003388       0.00001591        0        0       -1       57       26 
Fe      -0.04015107       2.94010135      77.49138637      -0.00045138       0.00082365      -0.00008495        0        0       -1       58       26 
Fe       1.38383865       4.91389143      77.20373139       0.00041013       0.00010078      -0.00032094        0        0       -1       58       26 
Fe      -0.04087677       5.24566619      79.17690547       0.00000438       0.00032687      -0.00002118        0        0       -1       58       26 
Fe       1.36493172       7.22850766      78.87730477      -0.00088617       0.00034405      -0.00090975        0        0       -1       58       26 
Fe      -0.04537946       7.55494623      80.83419819      -0.00079450       0.00028021      -0.00061127        0        0       -1       58       26 
Fe       1.36282745       9.52527316      80.48213002      -0.00080822       0.00062500      -0.00074953        0        0       -1       58       26 
Fe      -0.04183686       9.85637259      82.46022566      -0.00122284       0.00027126      -0.00079771        0        0       -1       58       26 
Fe       1.37280586      11.83033150      82.13418387      -0.00111681       0.00033290      -0.00041883        0        0       -1       58       26 
Fe      -0.03451362      12.16105513      84.10631419      -0.00158321       0.00024659      -0.00045330        0        0       -1       58       26 
Fe       1.38203211      14.13556900      83.77651852      -0.00150215       0.00029756      -0.00062558        0        0       -1       58       26 
Fe      -0.02864953      14.46562262      85.74775091      -0.00097230       0.00027263      -0.00055949        0        0       -1       58       26 
Fe       1.38695712      16.43807282      85.41223991      -0.00065796       0.00026033      -0.00074050        0        0       -1       58       26 
Fe      -0.02489736      16.76912466      87.38708341      -0.00113314       0.00004665      -0.00051134        0        0       -1       58       26 
Fe       1.38976674      18.74199842      87.05658118      -0.00127172      -0.00004158      -0.00045875        0        0       -1       58       26 
Fe      -0.02235982      19.07327888      89.03088275      -0.00142746      -0.00015963      -0.00071816        0        0       -1       58       26 
Fe       1.39190228      21.04638386      88.70118698      -0.00126927      -0.00027881      -0.00062945        0        0       -1       58       26 
Fe      -0.02039296      21.37764731      90.67520701      -0.00125448      -0.00033895      -0.00032105        0        0       -1       58       26 
Fe       1.39390940      23.35068699      90.34580007      -0.00113850      -0.00028288      -0.00024483        0        0       -1       58       26 
Fe      -0.01861980      23.68194650      92.32008783      -0.00147385      -0.00031315      -0.00040448        0        0       -1       58       26 
Fe       1.35526321       0.97649481      77.87238810      -0.00009531       0.00100019       0.00017400        0        0       -1       58       26 
Fe      -0.04711523       1.30047017      79.83145402      -0.00008335       0.00133723       0.00021264        0        0       -1       58       26 
Fe       1.37296113       3.27074517      79.48390744       0.00019215       0.00086365       0.00006003        0        0       -1       58       26 
Fe      -0.03920801       3.60143871      81.46542726      -0.00055344       0.00062907      -0.00022427        0        0       -1       58       26 
Fe       1.37446571       5.57648895      81.14963625      -0.00054013       0.00035156      -0.00034659        0        0       -1       58       26 
Fe      -0.03653056       5.90733029      83.12154264      -0.00115970       0.00070614      -0.00042432        0        0       -1       58       26 
Fe       1.37590181       7.88366251      82.79930188      -0.00132188       0.00064335      -0.00047893        0        0       -1       58       26 
Fe      -0.03333309       8.21352423      84.76823173      -0.00140178       0.00051946      -0.00027643        0        0       -1       58       26 
Fe       1.38054188      10.18705698      84.43481070      -0.00154789       0.00049353      -0.00055976        0        0       -1       58       26 
Fe      -0.02901699      10.51788982      86.40802528      -0.00140140       0.00034934      -0.00049110        0        0       -1       58       26 
Fe       1.38587800      12.49173228      86.07853884      -0.00123038       0.00037604      -0.00053204        0        0       -1       58       26 
Fe      -0.02490915      12.82261675      88.05093574      -0.00134051       0.00033718      -0.00014505        0        0       -1       58       26 
Fe       1.39007587      14.79623347      87.72005403      -0.00103869       0.00022977      -0.00017095        0        0       -1       58       26 
Fe      -0.02169860      15.12716753      89.69284680      -0.00147299       0.00000664      -0.00013640        0        0       -1       58       26 
Fe       1.39305210      17.10024763      89.36122021      -0.00132498      -0.00002235      -0.00034345        0        0       -1       58       26 
Fe      -0.01941554      17.43136223      91.33501995      -0.00130540      -0.00027436      -0.00039953        0        0       -1       58       26 
Fe       1.39515117      19.40450649      91.00489718      -0.00111791      -0.00031048      -0.00066000        0        0       -1       58       26 
Fe      -0.01773654      19.73552955      92.97871027      -0.00120929      -0.00037768      -0.00018768        0        0       -1       58       26 
Fe       1.39684054      21.70874445      92.64915831      -0.00120743      -0.00029860       0.00003292        0        0       -1       58       26 
Fe      -0.01646456      22.03955494      94.62307135      -0.00143328      -0.00033768      -0.00000247        0        0       -1       58       26 
Fe       1.39820643      24.01288889      94.29412101      -0.00147704      -0.00036366      -0.00025015        0        0       -1       58       26 
Fe       1.37519702       1.62907315      81.79927083      -0.00072339       0.00042964       0.00008462        0        0       -1       58       26 
Fe      -0.03427500       1.95922623      83.77093986      -0.00126924       0.00002786      -0.00023657        0        0       -1       58       26 
Fe       1.37991492       3.93262440      83.44230951      -0.00109896       0.00041619      -0.00047270        0        0       -1       58       26 
Fe      -0.03076963       4.26384304      85.41709317      -0.00099335       0.00029173      -0.00057947        0        0       -1       58       26 
Fe       1.38310609       6.23835086      85.09348296      -0.00117529       0.00055243      -0.00034971        0        0       -1       58       26 
Fe      -0.02753473       6.56955766      87.06562275      -0.00118754       0.00018683      -0.00003815        0        0       -1       58       26 
Fe       1.38661462       8.54414234      86.73894481      -0.00118085       0.00024931      -0.00002029        0        0       -1       58       26 
Fe      -0.02427626       8.87507962      88.71065836      -0.00142136       0.00002543      -0.00043788        0        0       -1       58       26 
Fe       1.39027412      10.84888526      88.38069995      -0.00125323       0.00018115      -0.00005696        0        0       -1       58       26 
Fe      -0.02131419      11.17994601      90.35330693      -0.00142897       0.00002318      -0.00008867        0        0       -1       58       26 
Fe       1.39346502      13.15365970      90.02350426      -0.00142903      -0.00004978      -0.00036777        0        0       -1       58       26 
Fe      -0.01890238      13.48462614      91.99620247      -0.00134782      -0.00031129      -0.00046484        0        0       -1       58       26 
Fe       1.39588544      15.45814745      91.66585048      -0.00138525      -0.00036116      -0.00053084        0        0       -1       58       26 
Fe      -0.01710563      15.78891305      93.63890794      -0.00150605      -0.00042657      -0.00022892        0        0       -1       58       26 
Fe       1.39763533      17.76227686      93.30860126      -0.00145115      -0.00040591      -0.00020746        0        0       -1       58       26 
Fe      -0.01590266      18.09285462      95.28209776      -0.00171817      -0.00040869       0.00004750        0        0       -1       58       26 
Fe       1.39885984      20.06624598      94.95242575      -0.00162290      -0.00042240       0.00004117        0        0       -1       58       26 
Fe       1.38185029      -0.01513957      84.09380987      -0.00117462       0.00008196      -0.00004106        0        0       -1       58       26 
Fe      -0.02881493       0.31626163      86.06889744      -0.00050740       0.00019083      -0.00007497        0        0       -1       58       26 
Fe       1.38517519       2.29016345      85.74389586      -0.00091677       0.00018383      -0.00003671        0        0       -1       58       26 
Fe      -0.02589189       2.62144687      87.71735267      -0.00088975       0.00025657       0.00008317        0        0       -1       58       26 
Fe       1.38832801       4.59527694      87.39087019      -0.00109672       0.00010785      -0.00042468        0        0       -1       58       26 
Fe      -0.02306276       4.92670870      89.36425197      -0.00141394       0.00004438      -0.00019538        0        0       -1       58       26 
Fe       1.39130907       6.90084996      89.03801484      -0.00134538      -0.00001791      -0.00017451        0        0       -1       58       26 
Fe      -0.02057956       7.23209417      91.01063721      -0.00138897      -0.00015383      -0.00037295        0        0       -1       58       26 
Fe       1.39401991       9.20614089      90.68281079      -0.00141735      -0.00006650      -0.00052845        0        0       -1       58       26 
Fe      -0.01846639       9.53710835      92.65521501      -0.00132095      -0.00017170      -0.00018731        0        0       -1       58       26 
Fe       1.39631556      11.51092070      92.32593322      -0.00142894      -0.00019474      -0.00012571        0        0       -1       58       26 
Fe      -0.01677778      11.84164096      94.29866570      -0.00153605      -0.00031911       0.00001489        0        0       -1       58       26 
Fe       1.39808195      13.81534157      93.96893328      -0.00161127      -0.00032929       0.00013950        0        0       -1       58       26 
Fe      -0.01565805      14.14572934      95.94181156      -0.00175450      -0.00027448       0.00041636        0        0       -1       58       26 
Fe       1.39925397      16.11937627      95.61199704      -0.00179672      -0.00039658      -0.00000305        0        0       -1       58       26 
Fe       1.38993517       0.64779945      88.04352443      -0.00064978       0.00011391      -0.00001573        0        0       -1       58       26 
Fe      -0.02175972       0.97934918      90.01784697      -0.00138362      -0.00015680      -0.00019679        0        0       -1       58       26 
Fe       1.39255893       2.95290643      89.69098036      -0.00130998       0.00009503      -0.00003842        0        0       -1       58       26 
Fe      -0.01965202       3.28431612      91.66460764      -0.00138499      -0.00031934      -0.00033098        0        0       -1       58       26 
Fe       1.39485580       5.25807812      91.33748746      -0.00128596      -0.00014244       0.00003357        0        0       -1       58       26 
Fe      -0.01789257       5.58921529      93.31070027      -0.00130948      -0.00035534       0.00005074        0        0       -1       58       26 
Fe       1.39679858       7.56314483      92.98338115      -0.00126953      -0.00024092      -0.00035752        0        0       -1       58       26 
Fe      -0.01648819       7.89390097      94.95621006      -0.00148265      -0.00034386      -0.00020879        0        0       -1       58       26 
Fe       1.39835914       9.86782617      94.62783466      -0.00152568      -0.00034806      -0.00003161        0        0       -1       58       26 
Fe       1.39585910       1.31071904      91.99192175      -0.00140797      -0.00035461      -0.00028667        0        0       -1       58       26 
Fe      -0.01717982       1.64176466      93.96575454      -0.00137612      -0.00040243      -0.00002290        0        0       -1       58       26 
Fe       1.39745164       3.61542465      93.63817572      -0.00132073      -0.00051059      -0.00053060        0        0       -1       58       26 
Fe      -0.01609239       3.94613819      95.61159943      -0.00152475      -0.00043506      -0.00009634        0        0       -1       58       26 
Fe       1.39870206       5.91996625      95.28394268      -0.00152154      -0.00039386      -0.00008141        0        0       -1       58       26 
Fe       1.39914146       1.97240223      95.93949157      -0.00157929      -0.00032151       0.00013476        0        0       -1       58       26 
Fe       0.07481253       6.35941560      73.15089807       0.00133381      -0.00025293       0.00161649        0        0       -1       52       26 
Fe      15.54214926      36.18677620      10.03152229      -0.00136714      -0.00068498       0.00058874       -1       -1        0       58       26 
Fe      -0.16900484       8.52720193      74.42132385       0.00077803       0.00028879       0.00062652        0        0       -1       57       26 
Fe       1.18804094      10.49210577      74.22010826      -0.00146407       0.00028723      -0.00025756        0        0       -1       58       26 
Fe      -0.12260138      10.82282069      76.21507964      -0.00099514       0.00094448      -0.00073090        0        0       -1       58       26 
Fe       1.31268474      12.82705981      75.97611641      -0.00021829       0.00039502      -0.00060057        0        0       -1       56       26 
Fe      -0.06328025      13.15284523      77.89491722      -0.00038393       0.00128800      -0.00019702        0        0       -1       58       26 
Fe       1.39047348      15.10801968      77.47268398      -0.00040970       0.00046128      -0.00104005        0        0       -1       58       26 
Fe      -0.03168125      15.44427692      79.47160088      -0.00080131       0.00078960      -0.00087250        0        0       -1       58       26 
Fe       1.39231034      17.41635839      79.15300846      -0.00065926       0.00014698      -0.00160912        0        0       -1       58       26 
Fe      -0.02939882      17.74847008      81.13071345      -0.00065779       0.00014763      -0.00087239        0        0       -1       58       26 
Fe       1.38239952      19.72528086      80.81185787      -0.00010646       0.00002706      -0.00074934        0        0       -1       58       26 
Fe      -0.03187710      20.05410694      82.78099158       0.00006959       0.00029009      -0.00057775        0        0       -1       58       26 
Fe       1.37940922      22.02537393      82.44176163      -0.00064858       0.00029825      -0.00028975        0        0       -1       58       26 
Fe      -0.03122905      22.35643860      84.41984172      -0.00096914       0.00033069      -0.00027148        0        0       -1       58       26 
Fe      14.13040526      35.85932295       8.05749174      -0.00160505      -0.00076315       0.00030975       -1       -1        0       58       26 
Fe       2.51371093       0.25395981      72.15043701      -0.00121479      -0.00062877      -0.00019207        0        0       -1       52       26 
Fe      -0.21224734      12.47505517      74.12221011      -0.00121772       0.00104951       0.00127052        0        0       -1       55       26 
Fe       1.64085667      14.48796006      73.26277976       0.00051183       0.00097492      -0.00153512        0        0       -1       60       26 
Fe       0.00485476      14.76244676      75.43624119      -0.00057906       0.00060241      -0.00142516        0        0       -1       57       26 
Fe       1.47136578      16.72494707      75.18468423       0.00034898      -0.00034020      -0.00091545        0        0       -1       59       26 
Fe      -0.00102080      17.07809226      77.17351668      -0.00030413       0.00042863      -0.00118158        0        0       -1       58       26 
Fe       1.40399576      19.07781765      76.90802581      -0.00052008       0.00047287      -0.00013485        0        0       -1       58       26 
Fe      -0.02832855      19.39826324      78.85079292      -0.00058728       0.00060668      -0.00063327        0        0       -1       58       26 
Fe       1.36667548      21.36370776      78.46990048      -0.00016513       0.00104779       0.00055951        0        0       -1       58       26 
Fe      -0.04087353      21.69452251      80.45995373      -0.00008531       0.00027338      -0.00019439        0        0       -1       58       26 
Fe       1.36784247      23.66700208      80.14103720      -0.00052313       0.00104085       0.00032301        0        0       -1       58       26 
Fe      -0.03873130      23.99808596      82.11808658      -0.00112473       0.00033312      -0.00012856        0        0       -1       58       26 
Fe       0.21513528      16.48574190      73.16096863      -0.00032045      -0.00025817      -0.00052243        0        0       -1       57       26 
Fe       1.57261024      18.51711283      73.12607705      -0.00108996      -0.00041068      -0.00019579        0        0       -1       53       26 
Fe       0.04131105      18.71629316      75.02356696      -0.00057757      -0.00034666      -0.00081905        0        0       -1       56       26 
Fe       1.30191177      20.70084148      74.40541898      -0.00081366       0.00017026      -0.00107294        0        0       -1       57       26 
Fe      -0.06253867      21.02923826      76.46176625      -0.00062579       0.00107198       0.00047582        0        0       -1       57       26 
Fe       1.31962797      23.00560738      76.18261699      -0.00063921      -0.00001192       0.00063003        0        0       -1       58       26 
Fe      -0.06233573      23.33654191      78.16238076      -0.00092084       0.00078309       0.00029154        0        0       -1       58       26 
Fe      15.54508953      33.88506362       8.38581307      -0.00146712      -0.00074434       0.00058920       -1       -1        0       58       26 
Fe      14.13246124      33.55707083       6.41230869      -0.00173395      -0.00083138       0.00043443       -1       -1        0       58       26 
Fe      -0.17267442      22.67866228      74.19230677      -0.00044009      -0.00023553       0.00015545        0        0       -1       58       26 
Fe      -0.01564303      -0.00112220      96.26798500      -0.00158080      -0.00038790       0.00006589        0        0       -1       58       26 
Fe       0.49431648      14.53300483      70.94420529      -0.00010221       0.00114921      -0.00119603        0        0       -1       59       26 
Fe       1.86574878      16.51538403      71.11625624       0.00074745       0.00009312      -0.00041130        0        0       -1       56       26 
Fe       0.55208008      16.75481316      69.10527417       0.00114345      -0.00001086      -0.00100140        0        0       -1       58       26 
Fe       1.98834067      18.73848326      69.27378796       0.00031263      -0.00039414      -0.00128068        0        0       -1       56       26 
Fe       0.60420205      19.09114764      67.38866471       0.00083060      -0.00016605      -0.00058754        0        0       -1       57       26 
Fe       2.06635665      21.03603818      67.83600303       0.00060818      -0.00066978       0.00027724        0        0       -1       57       26 
Fe       0.62561669      21.37562967      65.82912312       0.00067619      -0.00092105      -0.00019254        0        0       -1       58       26 
Fe       2.04939364      23.34887717      66.13603532       0.00144029      -0.00114743       0.00005280        0        0       -1       58       26 
Fe       0.61263337      23.68273100      64.16288665       0.00105119      -0.00055599       0.00044921        0        0       -1       58       26 
Fe       2.02007807       1.31773801      64.48003807       0.00135190      -0.00129909       0.00070040        0        0       -1       58       26 
Fe       0.59733089       1.64534684      62.51707256       0.00077248      -0.00065505       0.00028276        0        0       -1       58       26 
Fe       2.00620406       3.61538786      62.86838141       0.00125593      -0.00094413       0.00038899        0        0       -1       58       26 
Fe       0.58978275       3.94500483      60.88883108       0.00082562      -0.00035883       0.00094752        0        0       -1       58       26 
Fe       2.00389071       5.91764642      61.21801528       0.00070183      -0.00039786       0.00076343        0        0       -1       58       26 
Fe       0.58727985       6.24695684      59.24242757       0.00074241      -0.00003724       0.00043488        0        0       -1       58       26 
Fe       2.00342310       8.22077775      59.57034967       0.00068194      -0.00017322       0.00074802        0        0       -1       58       26 
Fe       0.58568421       8.54969558      57.59621227       0.00116315      -0.00002508       0.00084915        0        0       -1       58       26 
Fe       2.00189766      10.52275444      57.92676366       0.00120411       0.00003299       0.00062179        0        0       -1       58       26 
Fe       0.58396720      10.85227771      55.95125196       0.00144100       0.00009503       0.00061311        0        0       -1       58       26 
Fe       2.13496429      12.50778271      70.26413394      -0.00054391       0.00010861       0.00037455        0        0       -1       56       26 
Fe       0.64587382      12.84787729      68.39056351       0.00029056       0.00053232      -0.00003046        0        0       -1       57       26 
Fe       1.99914972      14.79184308      68.85190702       0.00075163       0.00018009      -0.00007496        0        0       -1       57       26 
Fe       0.59794819      15.12186709      66.83315753       0.00036442      -0.00044612       0.00013068        0        0       -1       58       26 
Fe       2.00317890      17.09463197      67.12221837       0.00052248      -0.00022764      -0.00070374        0        0       -1       58       26 
Fe       0.59857821      17.42864156      65.14849109       0.00057012      -0.00124261      -0.00013630        0        0       -1       58       26 
Fe       2.02259400      19.41102520      65.44856754       0.00105718      -0.00060134      -0.00043252        0        0       -1       58       26 
Fe       0.60348617      19.73823679      63.49118173       0.00133015      -0.00101953       0.00014454        0        0       -1       58       26 
Fe       2.02527912      21.70874117      63.84284011       0.00106190      -0.00065526      -0.00003598        0        0       -1       58       26 
Fe       0.60058915      22.03919399      61.86464966       0.00116112      -0.00040873      -0.00020629        0        0       -1       58       26 
Fe       2.01588683      24.01354954      62.19038505       0.00079414      -0.00054986       0.00061619        0        0       -1       58       26 
Fe       0.59379360      -0.00179335      60.21805508       0.00104307      -0.00019654       0.00034776        0        0       -1       58       26 
Fe       2.00710300       1.97307473      60.54801472       0.00103056      -0.00018699       0.00044126        0        0       -1       58       26 
Fe       0.58809940       2.30119821      58.57647523       0.00131554       0.00031813      -0.00001787        0        0       -1       58       26 
Fe       2.00239522       4.27395758      58.91214036       0.00074236       0.00012888       0.00065889        0        0       -1       58       26 
Fe       0.58470978       4.60292725      56.93689800       0.00117550       0.00042931       0.00018053        0        0       -1       58       26 
Fe       1.99991572       6.57612460      57.26734676       0.00124804       0.00031718       0.00005149        0        0       -1       58       26 
Fe       0.58257680       6.90547095      55.29259265       0.00164562       0.00051007      -0.00003619        0        0       -1       58       26 
Fe       1.99815467       8.87895939      55.62176940       0.00154817       0.00026598       0.00054500        0        0       -1       58       26 
Fe       0.58114666       9.20856069      53.64736715       0.00164246       0.00036809       0.00033127        0        0       -1       58       26 
Fe       1.99670271      11.18201494      53.97630638       0.00146211       0.00010238       0.00080649        0        0       -1       58       26 
Fe       0.58008827      11.51196132      52.00178004       0.00171605       0.00011670       0.00075041        0        0       -1       58       26 
Fe       2.03281770      13.15864059      66.45139733       0.00046355      -0.00024392       0.00036671        0        0       -1       58       26 
Fe       0.60545120      13.48420879      64.49222324       0.00041533      -0.00090520       0.00079241        0        0       -1       58       26 
Fe       2.01480989      15.45399576      64.84067962       0.00044396      -0.00102046       0.00009839        0        0       -1       58       26 
Fe       0.59756527      15.78490848      62.85891829       0.00073661      -0.00094905      -0.00003692        0        0       -1       58       26 
Fe       2.01360507      17.75972367      63.17551218       0.00099218      -0.00100088       0.00030000        0        0       -1       58       26 
Fe       0.59518991      18.08978462      61.20312690       0.00145677      -0.00034756       0.00011226        0        0       -1       58       26 