5712
Lattice="16.98 0.0 0.0 0.0 44.20601317 0.0 0.0 0.0 86.46946443" Properties=species:S:1:pos:R:3:force:R:3:map_shift:I:3:n_neighb:I:1:Z:I:1 virial="-89.32004837 49.40682186 -0.00700564 49.40682186 -55.94159819 -0.00730913 -0.00700564 -0.00730913 0.55677174" cutoff=5.3 adsorbate_info=T nneightol=1.2 energy=-22843.89137299 pbc="T T T"
Fe      15.12440328      24.99883886      35.20058029      -0.00241060      -0.00206565      -0.00107132       -1       -1        0       58       26 
Fe       0.55324551       2.34002042      65.67707509      -0.00167839      -0.00061331      -0.00234034        0        0       -1       56       26 
Fe       1.96121261       4.30546390      65.66564046      -0.00213615      -0.00108551       0.00003944        0        0       -1       59       26 
Fe       0.35520535       4.38284457      67.76018101      -0.00000199       0.00196756      -0.00226674        0        0       -1       59       26 
Fe       1.80069245       6.37734442      67.68280538      -0.00016317       0.00077837       0.00036192        0        0       -1       58       26 
Fe       0.29657127       6.55298392      69.68828961      -0.00141818       0.00092505       0.00183812        0        0       -1       58       26 
Fe       1.70520260       8.56028433      69.58644824      -0.00105068       0.00047685       0.00196048        0        0       -1       58       26 
Fe       0.23854630       8.74259585      71.55405500      -0.00097809       0.00018073       0.00072854        0        0       -1       58       26 
Fe       1.62454041      10.75043037      71.37358334      -0.00016738      -0.00074603      -0.00049082        0        0       -1       58       26 
Fe       0.19136721      10.91977334      73.34359619      -0.00271154      -0.00000489      -0.00170965        0        0       -1       58       26 
Fe       1.58049597      12.90568049      73.09889387      -0.00473492      -0.00099164      -0.00054479        0        0       -1       58       26 
Fe       0.16536540      13.08265843      75.10879178      -0.00139847       0.00172087       0.00133556        0        0       -1       58       26 
Fe       1.56597414      15.06894558      74.91973047       0.00048194       0.00026523      -0.00174632        0        0       -1       58       26 
Fe       0.15651190      15.24959951      76.92673361       0.00212748       0.00174524      -0.00001587        0        0       -1       58       26 
Fe       1.56656047      17.24027641      76.76342845       0.00048510       0.00164619      -0.00004771        0        0       -1       58       26 
Fe       0.15785903      17.42211160      78.76107967      -0.00111443       0.00178896      -0.00161416        0        0       -1       58       26 
Fe       1.57281104      19.41690473      78.60288742      -0.00033328       0.00202675      -0.00506390        0        0       -1       58       26 
Fe       0.16127365      19.59888149      80.59118407      -0.00158499       0.00215062      -0.00428547        0        0       -1       58       26 
Fe       1.57814290      21.59551442      80.42028004      -0.00178065       0.00122293      -0.00273431        0        0       -1       58       26 
Fe       0.16350636      21.77712759      82.40498448      -0.00150664       0.00056306      -0.00212527        0        0       -1       58       26 
Fe       1.40735396       0.30262225      66.62128704       0.00208250       0.00002404      -0.00147660        0        0       -1       53       26 
Fe       0.08592106       0.39072640      68.51822643       0.00052317       0.00363251      -0.00231416        0        0       -1       56       26 
Fe       1.69900364       2.40488026      67.93237317       0.00054857       0.00311518      -0.00121855        0        0       -1       58       26 
Fe       0.21510286       2.58421508      70.01231706      -0.00004565       0.00096830      -0.00114004        0        0       -1       57       26 
Fe       1.68462355       4.56110495      69.81058854       0.00031094       0.00139182      -0.00380150        0        0       -1       58       26 
Fe       0.22781378       4.74830963      71.83683917      -0.00178153       0.00242872      -0.00152796        0        0       -1       58       26 
Fe       1.65909736       6.73978057      71.68814171      -0.00287609       0.00056153       0.00124704        0        0       -1       58       26 
Fe       0.21299375       6.92211868      73.68622692      -0.00422336       0.00173512       0.00225948        0        0       -1       58       26 
Fe       1.62379920       8.92008856      73.53193572      -0.00327793       0.00183443      -0.00190934        0        0       -1       58       26 
Fe       0.19022168       9.09867349      75.51617392      -0.00035599       0.00088314      -0.00364463        0        0       -1       58       26 
Fe       1.59514419      11.09425671      75.32624510      -0.00190635       0.00107382      -0.00168254        0        0       -1       58       26 
Fe       0.17243656      11.27223419      77.31528130       0.00305586      -0.00032721      -0.00269601        0        0       -1       58       26 
Fe       1.57903622      13.26168062      77.11307912       0.00407971       0.00002108      -0.00225202        0        0       -1       58       26 
Fe       0.16400297      13.44174597      79.11358209       0.00346691      -0.00105361      -0.00469101        0        0       -1       58       26 
Fe       1.57531264      15.43101125      78.92937125      -0.00025493       0.00062334      -0.00037378        0        0       -1       58       26 
Fe       0.16278277      15.61282839      80.92838391      -0.00471169       0.00028865       0.00068099        0        0       -1       58       26 
Fe       1.57620288      17.60449653      80.75676607      -0.00272417       0.00179638      -0.00119852        0        0       -1       58       26 
Fe       0.16187375      17.78721501      82.75061108       0.00012846       0.00083793      -0.00014088        0        0       -1       58       26 
Fe       1.57689658      19.78117229      82.57999584       0.00019222       0.00215912      -0.00265704        0        0       -1       58       26 
Fe       0.16181409      19.96350411      84.56905466       0.00285205       0.00015487      -0.00237822        0        0       -1       58       26 
Fe       1.57754542      21.95858769      84.39121550       0.00282477       0.00017149       0.00084448        0        0       -1       58       26 
Fe       1.55145627       0.61626307      70.39902171       0.00090950       0.00091304      -0.00211339        0        0       -1       57       26 
Fe       0.15536153       0.78385446      72.33691602       0.00046809       0.00040827      -0.00176344        0        0       -1       58       26 
Fe       1.61059505       2.76701835      72.04258986      -0.00005498       0.00143647      -0.00195857        0        0       -1       58       26 
Fe       0.18523133       2.94486770      74.05216680      -0.00086365       0.00186909      -0.00050836        0        0       -1       58       26 
Fe       1.61936343       4.93104258      73.85011800      -0.00598448       0.00145992       0.00143185        0        0       -1       58       26 
Fe       0.18892424       5.11187473      75.85587028      -0.00386776       0.00025486       0.00070140        0        0       -1       58       26 
Fe       1.60826369       7.10320866      75.68355150      -0.00179310       0.00235650      -0.00111102        0        0       -1       58       26 
Fe       0.18024433       7.28495997      77.68001297       0.00375049      -0.00111591      -0.00469944        0        0       -1       58       26 
Fe       1.59305436       9.27871593      77.50423447       0.00439242      -0.00122098      -0.00179287        0        0       -1       58       26 
Fe       0.17161947       9.45891267      79.49515162       0.00378890       0.00032823      -0.00224401        0        0       -1       58       26 
Fe       1.58340333      11.45140973      79.30697540       0.00268106      -0.00055507      -0.00065454        0        0       -1       58       26 
Fe       0.16710275      11.63140044      81.29978818      -0.00060763       0.00044166      -0.00031239        0        0       -1       58       26 
Fe       1.57983457      13.62239060      81.11107764      -0.00136637      -0.00034015      -0.00236315        0        0       -1       58       26 
Fe       0.16484541      13.80387369      83.10659988      -0.00190694      -0.00132315      -0.00005042        0        0       -1       58       26 
Fe       1.57782196      15.79521732      82.92560910       0.00043181      -0.00144721      -0.00344825        0        0       -1       58       26 
Fe       0.16317186      15.97688909      84.92101403       0.00059947      -0.00140249      -0.00388718        0        0       -1       58       26 
Fe       1.57672221      17.96948720      84.74388496       0.00336185      -0.00011582      -0.00108996        0        0       -1       58       26 
Fe       1.57807266       0.95627140      74.29801808       0.00111325      -0.00078253      -0.00176520        0        0       -1       58       26 
Fe       0.16605087       1.13088009      76.27147949      -0.00105279       0.00215036      -0.00109079        0        0       -1       58       26 
Fe       1.59334482       3.12270133      76.05234156      -0.00076075       0.00269821       0.00040032        0        0       -1       58       26 
Fe       0.17332628       3.30238781      78.04801060       0.00030879      -0.00015107       0.00211455        0        0       -1       58       26 
Fe       1.59325151       5.29322254      77.85659832       0.00184072      -0.00072166       0.00034447        0        0       -1       58       26 
Fe       0.17207248       5.47452997      79.85464668       0.00419296      -0.00077048      -0.00184849        0        0       -1       58       26 
Fe       1.58791743       7.46626651      79.67493065       0.00371970      -0.00059633      -0.00329869        0        0       -1       58       26 
Fe       0.16943015       7.64733244      81.66923180       0.00051427      -0.00009515      -0.00220764        0        0       -1       58       26 
Fe       1.58383757       9.63953163      81.48721241       0.00067999       0.00021289      -0.00206305        0        0       -1       58       26 
Fe       0.16698849       9.82058164      83.47975055       0.00029636      -0.00118749      -0.00035557        0        0       -1       58       26 
Fe       1.58134823      11.81243460      83.29305266      -0.00138525      -0.00104031       0.00018002        0        0       -1       58       26 
Fe       0.16543689      11.99293577      85.28621005      -0.00110898      -0.00081742       0.00323446        0        0       -1       58       26 
Fe       1.57931607      13.98487127      85.10129258      -0.00080193      -0.00145914       0.00100680        0        0       -1       58       26 
Fe       1.58170801       1.30904104      78.25148287      -0.00198236       0.00238200       0.00050788        0        0       -1       58       26 
Fe       0.16629125       1.48907814      80.23544354      -0.00019468      -0.00002710       0.00144857        0        0       -1       58       26 
Fe       1.58465440       3.48289520      80.04155467       0.00012098      -0.00160227       0.00255045        0        0       -1       58       26 
Fe       0.16738436       3.66359745      82.03444138       0.00018084      -0.00175049       0.00111825        0        0       -1       58       26 
Fe       1.58407452       5.65564722      81.85068837       0.00036696      -0.00136625      -0.00471783        0        0       -1       58       26 
Fe       0.16698032       5.83645046      83.84487633      -0.00270484      -0.00028932      -0.00125129        0        0       -1       58       26 
Fe       1.58249883       7.82851087      83.66309333      -0.00061494      -0.00094718       0.00028495        0        0       -1       58       26 
Fe       0.16579267       8.00883677      85.65724352      -0.00148463       0.00065816       0.00182705        0        0       -1       58       26 
Fe       1.58069410      10.00098579      85.47326848      -0.00045865      -0.00040439       0.00090819        0        0       -1       58       26 
Fe       1.57986830       1.66973608      82.22178203       0.00288795      -0.00083271       0.00211265        0        0       -1       58       26 
Fe       0.16416429       1.85070786      84.20950072       0.00016815      -0.00126176       0.00102028        0        0       -1       58       26 
Fe       1.58083298       3.84414124      84.02666417      -0.00094783      -0.00065001      -0.00040486        0        0       -1       58       26 
Fe       0.16401998       4.02415462      86.01852898       0.00029797       0.00140526      -0.00198880        0        0       -1       58       26 
Fe       1.57986503       6.01670515      85.83885813       0.00140834       0.00080007      -0.00136601        0        0       -1       58       26 
Fe       1.57864973       2.03071148      86.19784582      -0.00075357       0.00115481       0.00097817        0        0       -1       58       26 
Fe       0.53351979       6.30773708      65.65991121       0.00181676      -0.00012088      -0.00235888        0        0       -1       58       26 
Fe       1.92755272       8.31827547      65.64779706       0.00211453       0.00126222      -0.00118833        0        0       -1       55       26 
Fe       0.37649603       8.37376182      67.62073588       0.00105750      -0.00007068       0.00040730        0        0       -1       57       26 
Fe       1.73628332      10.37116888      67.54529784       0.00459881       0.00013171       0.00044207        0        0       -1       56       26 
Fe       0.24422619      10.58743671      69.42977031       0.00267346      -0.00033246       0.00140771        0        0       -1       57       26 
Fe       1.56331098      12.55795430      69.03200695       0.00148229      -0.00084608       0.00056948        0        0       -1       57       26 
Fe       0.16182998      12.73110822      71.07750731      -0.00270599      -0.00269077      -0.00163097        0        0       -1       58       26 
Fe       1.53566019      14.70790091      70.87944750      -0.00146567      -0.00166672      -0.00338271        0        0       -1       58       26 
Fe       0.14038566      14.88859627      72.90539825      -0.00017326      -0.00144617      -0.00221166        0        0       -1       58       26 
Fe       1.53842989      16.87660890      72.75903307      -0.00044553      -0.00174947       0.00106650        0        0       -1       58       26 
Fe       0.14119478      17.05873614      74.76300519       0.00040096       0.00004799       0.00140375        0        0       -1       58       26 
Fe       1.55404143      19.05477119      74.62679296       0.00105489      -0.00018005      -0.00289204        0        0       -1       58       26 
Fe       0.15099173      19.23530629      76.61457242       0.00013210       0.00162762      -0.00550943        0        0       -1       58       26 
Fe       1.57108278      21.23466818      76.45786715      -0.00130451       0.00231706      -0.00348544        0        0       -1       58       26 
Fe       0.16104584      21.41443208      78.43753784      -0.00144022       0.00248137      -0.00448728        0        0       -1       58       26 
Fe       0.45272241      10.34412027      65.63545364       0.00242253      -0.00211760      -0.00145777        0        0       -1       53       26 
Fe      14.83100023      36.07220345      22.40117018      -0.00351786      -0.00100394       0.00091284       -1       -1        0       53       26 
Fe       0.06732784      12.41333683      66.92790204       0.00246637      -0.00054613      -0.00052561        0        0       -1       59       26 
Fe       1.41390869      14.39214523      66.76264473      -0.00001175       0.00082522       0.00105139        0        0       -1       59       26 
Fe       0.08232459      14.53239400      68.83547346       0.00118391      -0.00228437      -0.00112337        0        0       -1       59       26 
Fe       1.45580570      16.51597126      68.73231285       0.00055280       0.00006284       0.00064044        0        0       -1       58       26 
Fe       0.09257449      16.69279433      70.74977410      -0.00072063      -0.00161254       0.00019581        0        0       -1       58       26 
Fe       1.49748380      18.68749246      70.65520438       0.00126456       0.00050275       0.00039192        0        0       -1       58       26 
Fe       0.11818785      18.87290866      72.64016197       0.00066432      -0.00039864       0.00100660        0        0       -1       58       26 
Fe       1.54322185      20.87838411      72.51571574       0.00199226      -0.00042869      -0.00004608        0        0       -1       58       26 
Fe       0.14633493      21.05656693      74.48308749       0.00060770      -0.00052077      -0.00054484        0        0       -1       58       26 
Fe      16.84458744      34.02556130      21.40943026      -0.00066875      -0.00266960      -0.00214106       -1       -1        0       57       26 
Fe      15.21491114      34.00209860      23.69487790      -0.00018833      -0.00089219      -0.00498625       -1       -1        0       59       26 
Fe      -0.04320533      16.39028157      66.70464671      -0.00036610       0.00191889       0.00222211        0        0       -1       58       26 
Fe       1.35322649      18.39097393      66.67390768       0.00119168       0.00058780      -0.00003993        0        0       -1       58       26 
Fe       0.02491474      18.50563406      68.66809454       0.00117366       0.00015800       0.00050154        0        0       -1       58       26 
Fe       1.45168883      20.49764320      68.60601368       0.00091660       0.00191546      -0.00113778        0        0       -1       58       26 
Fe       0.09474875      20.69461043      70.55893615       0.00217589       0.00248187       0.00005978        0        0       -1       58       26 
Fe      16.70009160      32.02326444      23.52818665       0.00069039      -0.00304228      -0.00123579       -1       -1        0       59       26 
Fe      15.20146183      31.88229384      25.60049493      -0.00152645       0.00248812      -0.00048797       -1       -1        0       59       26 
Fe      -0.05749590      20.39308513      66.64807855       0.00231705      -0.00117386      -0.00035994        0        0       -1       56       26 
Fe       0.16255134       0.03644211      86.37835168       0.00178084      -0.00090915       0.00177566        0        0       -1       58       26 
Fe       0.74372969       4.35022663      63.56969208       0.00027776      -0.00140030      -0.00042650        0        0       -1       59       26 
Fe       2.11707929       6.34598526      63.63060884      -0.00176697       0.00034656      -0.00139202        0        0       -1       58       26 
Fe       0.81031664       6.48087088      61.61785176      -0.00217740       0.00087001      -0.00084589        0        0       -1       58       26 
Fe       2.22336520       8.46977127      61.69937594      -0.00184301      -0.00056782      -0.00060206        0        0       -1       58       26 
Fe       0.87695896       8.67532502      59.73479439      -0.00152699       0.00245255      -0.00060097        0        0       -1       58       26 
Fe       2.32514491      10.69512545      59.90314397       0.00041393       0.00013343       0.00103460        0        0       -1       57       26 
Fe       0.93745406      10.86908393      57.95558518      -0.00096430       0.00138281       0.00152548        0        0       -1       58       26 
Fe       2.38835336      12.84884547      58.24991292      -0.00035962       0.00026925       0.00174852        0        0       -1       58       26 
Fe       0.97065776      13.03308068      56.23199863       0.00069184      -0.00050545      -0.00038470        0        0       -1       58       26 
Fe       2.40349510      15.01526980      56.43338675       0.00123200       0.00017855      -0.00034652        0        0       -1       58       26 
Fe       0.98046307      15.20269970      54.41958360      -0.00086681      -0.00168450       0.00163522        0        0       -1       58       26 
Fe       2.40197274      17.19129690      54.58448002      -0.00121573      -0.00129334       0.00027931        0        0       -1       58       26 
Fe       0.97955917      17.37831121      52.58392565      -0.00249164      -0.00290415      -0.00251164        0        0       -1       58       26 
Fe       2.39415355      19.37203817      52.74041582      -0.00095285      -0.00212912       0.00105484        0        0       -1       58       26 
Fe       0.97455643      19.55686764      50.75004028      -0.00145440      -0.00160309      -0.00088401        0        0       -1       58       26 
Fe       2.38693038      21.55301395      50.91533400      -0.00136526      -0.00263041       0.00028004        0        0       -1       58       26 
Fe       0.97078241      21.73567412      48.92906568      -0.00249193      -0.00031826       0.00132137        0        0       -1       58       26 
Fe       2.38295236       1.62816603      49.10606221       0.00026990      -0.00174569       0.00245390        0        0       -1       58       26 
Fe       0.96912791       1.81049754      47.11854210      -0.00152895      -0.00104902       0.00283832        0        0       -1       58       26 
Fe       2.23562944       2.37178289      63.41164471      -0.00336761      -0.00116716      -0.00098108        0        0       -1       59       26 
Fe       0.91099651       2.52508127      61.31898041      -0.00211575      -0.00171829       0.00053713        0        0       -1       57       26 
Fe       2.26141629       4.49827910      61.51072104      -0.00338963       0.00076574       0.00015687        0        0       -1       59       26 
Fe       0.89629481       4.68479506      59.48063446      -0.00203601       0.00078132       0.00312600        0        0       -1       58       26 
Fe       2.28981398       6.67340203      59.61710051      -0.00254729       0.00196494      -0.00071755        0        0       -1       58       26 
Fe       0.91276258       6.86482201      57.62194558      -0.00080165       0.00153221       0.00015933        0        0       -1       58       26 
Fe       2.33122685       8.86509728      57.76728269      -0.00101730       0.00180888      -0.00025748        0        0       -1       58       26 
Fe       0.93835978       9.04998575      55.79082363       0.00022491       0.00100449       0.00035392        0        0       -1       58       26 
Fe       2.36624512      11.04796385      55.98511788      -0.00049183       0.00072528       0.00069618        0        0       -1       58       26 
Fe       0.95900510      11.22934390      54.00271058      -0.00070427      -0.00049973       0.00163286        0        0       -1       58       26 
Fe       2.38472059      13.21712217      54.22389887       0.00157189      -0.00052978      -0.00023312        0        0       -1       58       26 
Fe       0.96998666      13.40025855      52.22105509      -0.00233534      -0.00002795       0.00069992        0        0       -1       58       26 
Fe       2.39094908      15.38820484      52.41276610      -0.00280549      -0.00179891       0.00079617        0        0       -1       58       26 
Fe       0.97276553      15.57223562      50.41028186      -0.00190338       0.00086858       0.00176227        0        0       -1       58       26 
Fe       2.38927420      17.56303666      50.58562578       0.00110595      -0.00054361      -0.00235200        0        0       -1       58       26 
Fe       0.97112587      17.74728707      48.58878158       0.00189576       0.00054847       0.00216004        0        0       -1       58       26 
Fe       2.38643133      19.74050304      48.75920465       0.00055348       0.00002806      -0.00094349        0        0       -1       58       26 
Fe       0.96983758      19.92421432      46.76817500       0.00121200       0.00012679       0.00052953        0        0       -1       58       26 
Fe       2.38494649      21.91841081      46.94144579      -0.00065258       0.00029900       0.00078906        0        0       -1       58       26 
Fe       0.96974591      -0.00234622      44.95340126      -0.00034550       0.00087372      -0.00192797        0        0       -1       58       26 
Fe       2.38498818       1.99205810      45.13034214      -0.00314085       0.00082110       0.00403472        0        0       -1       58       26 
Fe       2.34941344       2.70555423      59.28403485      -0.00167586      -0.00096920       0.00146457        0        0       -1       58       26 
Fe       0.94584569       2.88786084      57.27226715       0.00039364       0.00033444       0.00199619        0        0       -1       58       26 
Fe       2.33914944       4.87333375      57.46677858      -0.00025384       0.00144261       0.00219858        0        0       -1       58       26 
Fe       0.94070691       5.06068161      55.46248442       0.00239652      -0.00039386       0.00186860        0        0       -1       58       26 
Fe       2.35016871       7.05281618      55.62863378      -0.00004306       0.00026857       0.00188695        0        0       -1       58       26 
Fe       0.94879882       7.23924515      53.63645378      -0.00044580      -0.00115018       0.00270569        0        0       -1       58       26 
Fe       2.36604053       9.23461629      53.80836008       0.00067186      -0.00113315       0.00330865        0        0       -1       58       26 
Fe       0.95866607       9.41762961      51.82223491       0.00042793       0.00006184       0.00362477        0        0       -1       58       26 
Fe       2.37859269      11.41104479      52.01454131      -0.00206508      -0.00045577       0.00301581        0        0       -1       58       26 
Fe       0.96566585      11.59290218      50.02390415       0.00067009       0.00103041       0.00222419        0        0       -1       58       26 
Fe       2.38438076      13.58298113      50.22170057      -0.00108503       0.00111204       0.00044152        0        0       -1       58       26 
Fe       0.96855108      13.76643555      48.22431567       0.00100615      -0.00001702       0.00179483        0        0       -1       58       26 
Fe       2.38518749      15.75624979      48.41116928       0.00095157       0.00072515       0.00173607        0        0       -1       58       26 
Fe       0.96844910      15.94048367      46.41434638       0.00303959      -0.00149120       0.00126119        0        0       -1       58       26 
Fe       2.38454724      17.93150536      46.59403439       0.00108806      -0.00097213      -0.00052415        0        0       -1       58       26 
Fe       0.96855383      18.11463694      44.60009565      -0.00169543      -0.00156711      -0.00356674        0        0       -1       58       26 
Fe       2.38459956      20.10677055      44.77732946      -0.00174100      -0.00001686      -0.00276671        0        0       -1       58       26 
Fe       2.36797357       3.07177060      55.27101566       0.00221492       0.00043035       0.00367470        0        0       -1       58       26 
Fe       0.95848017       3.25569962      53.27544258       0.00078671      -0.00011623       0.00350513        0        0       -1       58       26 
Fe       2.36653831       5.24665328      53.46390834       0.00085859      -0.00167830       0.00182851        0        0       -1       58       26 
Fe       0.95871647       5.43064358      51.46883445       0.00000912       0.00061193      -0.00093428        0        0       -1       58       26 
Fe       2.37239497       7.42351970      51.64485854      -0.00219444       0.00043743       0.00227604        0        0       -1       58       26 
Fe       0.96237894       7.60684632      49.65357121      -0.00072166       0.00136134       0.00142678        0        0       -1       58       26 
Fe       2.37819371       9.60030777      49.83373304       0.00049150       0.00190833       0.00165315        0        0       -1       58       26 
Fe       0.96612631       9.78366721      47.84353552      -0.00193952      -0.00024365       0.00128019        0        0       -1       58       26 
Fe       2.38191429      11.77587979      48.03166245       0.00057201       0.00073242       0.00203254        0        0       -1       58       26 
Fe       0.96792499      11.95900931      46.03873243      -0.00105946      -0.00173888       0.00100695        0        0       -1       58       26 
Fe       2.38337299      13.95009140      46.22831716      -0.00132338      -0.00217364       0.00231871        0        0       -1       58       26 
Fe       0.96794999      14.13211445      44.23317781      -0.00105812      -0.00313904       0.00142637        0        0       -1       58       26 
Fe       2.38270196      16.12322379      44.41900326       0.00237808      -0.00257941      -0.00136252        0        0       -1       58       26 
Fe       2.37762405       3.43908841      51.28271989      -0.00158877      -0.00125114       0.00183066        0        0       -1       58       26 
Fe       0.96547543       3.62175844      49.29139059      -0.00175596      -0.00162417       0.00229307        0        0       -1       58       26 
Fe       2.37800876       5.61417978      49.47517889       0.00027066       0.00041104       0.00061086        0        0       -1       58       26 