21672
Lattice="16.98 0.0 0.0 0.0 85.0884575 0.0 0.0 0.0 170.17470064" Properties=species:S:1:pos:R:3:force:R:3:map_shift:I:3:n_neighb:I:1:Z:I:1 virial="4.85245975 -0.02732086 -0.32488494 -0.02732086 -154.18706153 -215.76698577 -0.32488494 -215.76698577 -216.41838624" cutoff=5.3 adsorbate_info=T nneightol=1.2 energy=-86849.96408236 pbc="T T T"
Fe       1.27443508       4.27709138     126.98007561      -0.00016813      -0.00031131      -0.00008977        0        0       -1       55       26
Fe      -0.13959936       2.66706311     128.10875094       0.00042656       0.00025229       0.00026146        0        0       -1       52       26
Fe      -0.13981309       5.61333666     128.34053892       0.00018277      -0.00017965      -0.00039695        0        0       -1       56       26
Fe      -0.13981606       8.43328916     128.37012320       0.00012269      -0.00049384      -0.00003890        0        0       -1       58       26
Fe      -0.13980266      11.25810719     128.38388663       0.00005757       0.00018218       0.00028121        0        0       -1       58       26
Fe      -0.13979195      14.09972613     128.39682200       0.00006936       0.00014594       0.00004449        0        0       -1       58       26
Fe      -0.13976084      16.96176143     128.41525316       0.00009692      -0.00001161      -0.00021290        0        0       -1       58       26
Fe      -0.13994944      19.81700628     128.44979152       0.00011854       0.00067428       0.00024331        0        0       -1       60       26
Fe       2.68944769      25.54922889     126.98011610      -0.00020454      -0.00030453      -0.00022653        0        0       -1       55       26
Fe      -0.13919069      22.28968501     128.98846624       0.00036466      -0.00015677      -0.00063089        0        0       -1       56       26
Fe       1.27543959      23.93922443     128.10879753       0.00027971       0.00004499       0.00002394        0        0       -1       52       26
Fe      -0.13900342      25.31039066     129.52155401       0.00036795       0.00010035      -0.00002801        0        0       -1       56       26
Fe       1.27519582      26.88547457     128.34057854       0.00012218      -0.00016086      -0.00047397        0        0       -1       56       26
Fe      -0.13906634      28.23469105     129.72306897       0.00030279      -0.00012508      -0.00018882        0        0       -1       58       26
Fe       1.27518012      29.70541107     128.37012954       0.00009672      -0.00042330      -0.00012347        0        0       -1       58       26
Fe      -0.13906738      31.07759196     129.77503193       0.00028791      -0.00019232       0.00005716        0        0       -1       58       26
Fe       1.27518171      32.53024189     128.38391595       0.00008019       0.00011202      -0.00003146        0        0       -1       58       26
Fe      -0.13904365      33.91271976     129.80516258       0.00028482      -0.00001486      -0.00008561        0        0       -1       58       26
Fe       1.27518987      35.37184949     128.39683197       0.00010653       0.00020852      -0.00005261        0        0       -1       58       26
Fe      -0.13898895      36.74997243     129.84107069       0.00036564       0.00011848      -0.00013036        0        0       -1       58       26
Fe       1.27522002      38.23389037     128.41528161       0.00016536      -0.00001054      -0.00037851        0        0       -1       58       26
Fe      -0.13884224      39.56679627     129.92671155       0.00031352       0.00014360       0.00004190        0        0       -1       58       26
Fe       1.27503026      41.08915875     128.44975881       0.00015782       0.00043402       0.00016887        0        0       -1       60       26
Fe      -0.13839935      42.18073239     130.34901942       0.00041198       0.00078059       0.00098582        0        0       -1       56       26
Fe       1.27577167       1.01751847     128.98841491       0.00049967       0.00000218      -0.00051088        0        0       -1       56       26
Fe      -0.13818065       2.44798539     130.64061745       0.00039679       0.00026937       0.00056492        0        0       -1       55       26
Fe       1.27599231       4.03825780     129.52153112       0.00042035       0.00006723      -0.00010807        0        0       -1       56       26
Fe      -0.13822759       5.39866644     130.95944679       0.00033766       0.00008539      -0.00025267        0        0       -1       58       26
Fe       1.27594525       6.96254657     129.72305006       0.00031840      -0.00003490      -0.00012332        0        0       -1       58       26
Fe      -0.13822998       8.31111437     131.12679102       0.00027970       0.00008767       0.00009223        0        0       -1       58       26
Fe       1.27595317       9.80546063     129.77502535       0.00025662      -0.00008429       0.00020861        0        0       -1       58       26
Fe      -0.13820741      11.16294895     131.19579519       0.00025265      -0.00027699      -0.00014975        0        0       -1       58       26
Fe       1.27597678      12.64059802     129.80515249       0.00023007      -0.00003405      -0.00003376        0        0       -1       58       26
Fe      -0.13816508      13.99167676     131.25174706       0.00033615      -0.00019866      -0.00020792        0        0       -1       58       26
Fe       1.27602748      15.47783715     129.84107953       0.00028927       0.00017747      -0.00026112        0        0       -1       58       26
Fe      -0.13804313      16.78487583     131.34316403       0.00029510       0.00004612       0.00005795        0        0       -1       58       26
Fe       1.27616571      18.29463783     129.92669892       0.00025636       0.00041143       0.00014122        0        0       -1       58       26
Fe      -0.13784981      19.44922508     131.60445932       0.00035102      -0.00025880       0.00034071        0        0       -1       56       26
Fe       1.27660278      20.90864496     130.34903190       0.00035877       0.00066034       0.00093151        0        0       -1       56       26
Fe      -0.13754611      22.24009281     131.88671260       0.00030594      -0.00005397       0.00033982        0        0       -1       56       26
Fe       1.27679639      23.72011989     130.64065243       0.00040954       0.00019151       0.00044021        0        0       -1       55       26
Fe      -0.13739228      25.10473006     132.16040849       0.00024036       0.00010575       0.00048468        0        0       -1       59       26
Fe       1.27674497      26.67079543     130.95944449       0.00036104       0.00010176      -0.00008470        0        0       -1       58       26
Fe      -0.13738457      28.03014442     132.40069852       0.00021875       0.00008172       0.00003472        0        0       -1       58       26
Fe       1.27674183      29.58325024     131.12678321       0.00032402      -0.00004185       0.00014318        0        0       -1       58       26
Fe      -0.13736645      30.92591511     132.55062444       0.00022591       0.00011063       0.00009299        0        0       -1       58       26
Fe       1.27677248      32.43505368     131.19578554       0.00030699      -0.00021373      -0.00004255        0        0       -1       58       26
Fe      -0.13732403      33.76873037     132.64213689       0.00030230      -0.00020828       0.00011440        0        0       -1       58       26
Fe       1.27682964      35.26378615     131.25173092       0.00037341      -0.00014310      -0.00003489        0        0       -1       58       26
Fe      16.84281689      36.56536324     132.74385379       0.00023740      -0.00003018       0.00001768       -1        0       -1       58       26
Fe       1.27696799      38.05697339     131.34319137       0.00031158       0.00014413      -0.00017876        0        0       -1       58       26
Fe      -0.13704097      39.27850240     132.93536799       0.00023854      -0.00016639      -0.00012940        0        0       -1       58       26
Fe       1.27717367      40.72131952     131.60446968       0.00033833      -0.00008130       0.00034429        0        0       -1       56       26
Fe      -0.13673785      42.03313759     133.17774760       0.00014282      -0.00001714       0.00007629        0        0       -1       58       26
Fe       1.27749605       0.96797140     131.88669706       0.00026020       0.00004734       0.00036372        0        0       -1       56       26
Fe      -0.13652664       2.31879234     133.41670742       0.00004554      -0.00062797       0.00011304        0        0       -1       58       26
Fe       1.27765828       3.83262715     132.16041556       0.00019537      -0.00008879       0.00027893        0        0       -1       59       26
Fe      -0.13643526       5.20265637     133.64899739       0.00005600      -0.00023526      -0.00015929        0        0       -1       58       26
Fe       1.27765893       6.75801325     132.40070003       0.00017124       0.00018968      -0.00000810        0        0       -1       58       26
Fe      -0.13643422       8.10758855     133.85083273       0.00007668       0.00032090       0.00004995        0        0       -1       58       26
Fe       1.27765531       9.65382227     132.55064025       0.00022700      -0.00004156      -0.00011693        0        0       -1       58       26
Fe      -0.13641362      10.98041636     133.99987996       0.00019975      -0.00002174       0.00019311        0        0       -1       58       26
Fe       1.27767315      12.49665299     132.64214781       0.00032843      -0.00041080      -0.00001039        0        0       -1       58       26
Fe      -0.13634712      13.79709319     134.12515051       0.00024626       0.00010976       0.00035451        0        0       -1       58       26
Fe       1.27779103      15.29327369     132.74384739       0.00026029      -0.00004937       0.00011213        0        0       -1       58       26
Fe      -0.13621870      16.54788799     134.29051379       0.00025125       0.00019554      -0.00011389        0        0       -1       58       26
Fe       1.27791353      18.00639009     132.93536751       0.00028683      -0.00012467      -0.00007565        0        0       -1       58       26
Fe      -0.13601119      19.29621488     134.49495904       0.00016092      -0.00010516      -0.00050465        0        0       -1       58       26
Fe       1.27820120      20.76102539     133.17776680       0.00018072      -0.00020985      -0.00010161        0        0       -1       58       26
Fe      -0.13578878      22.09987960     134.70888233       0.00008162      -0.00007679       0.00005207        0        0       -1       58       26
Fe       1.27840560      23.59087689     133.41671055       0.00007127      -0.00038000       0.00021162        0        0       -1       58       26
Fe      -0.13564988      24.95046002     134.92240033       0.00002856      -0.00046739      -0.00004997        0        0       -1       58       26
Fe       1.27850494      26.47476900     133.64899563       0.00006677      -0.00029705      -0.00015163        0        0       -1       58       26
Fe      -0.13556787      27.83165120     135.12980206       0.00008191       0.00000310      -0.00035165        0        0       -1       58       26
Fe       1.27853044      29.37970035     133.85084860       0.00005113       0.00032431       0.00003007        0        0       -1       58       26
Fe      -0.13550586      30.71301157     135.31706700       0.00014971       0.00047849       0.00025077        0        0       -1       58       26
Fe       1.27858139      32.25250109     133.99988113       0.00015368       0.00011842       0.00026373        0        0       -1       58       26
Fe      -0.13541975      33.55668531     135.47938930       0.00016924       0.00002049       0.00042969        0        0       -1       58       26
Fe       1.27868095      35.06919981     134.12514178       0.00017577      -0.00002351       0.00037378        0        0       -1       58       26
Fe      -0.13526719      36.34225418     135.64537156       0.00015578       0.00012500       0.00035079        0        0       -1       58       26
Fe       1.27883806      37.82000564     134.29049595       0.00016739       0.00005119      -0.00008244        0        0       -1       58       26
Fe      -0.13506448      39.10400268     135.83092869       0.00006547       0.00013466       0.00000082        0        0       -1       58       26
Fe       1.27906536      40.56832965     134.49493199       0.00009027       0.00000355      -0.00029600        0        0       -1       58       26
Fe      -0.13483771      41.89249988     136.02385443       0.00003009       0.00037093      -0.00013812        0        0       -1       58       26
Fe       1.27929844       0.82780352     134.70888689       0.00002175      -0.00029929      -0.00005307        0        0       -1       58       26
Fe      -0.13469920       2.17523396     136.22077636       0.00003247      -0.00031436      -0.00019865        0        0       -1       58       26
Fe       1.27943120       3.67836522     134.92239419      -0.00000001      -0.00052753       0.00001735        0        0       -1       58       26
Fe      -0.13461271       5.03129639     136.41926021       0.00017809       0.00005108      -0.00001759        0        0       -1       58       26
Fe       1.27949317       6.55954237     135.12979009       0.00006797       0.00007318      -0.00025802        0        0       -1       58       26
Fe      -0.13454611       7.89997055     136.61555098       0.00024950       0.00044205      -0.00005481        0        0       -1       58       26
Fe       1.27952353       9.44090033     135.31704462       0.00015611       0.00049706       0.00029957        0        0       -1       58       26
Fe      -0.13446902      10.75545894     136.80363643       0.00031941       0.00015774       0.00050955        0        0       -1       58       26
Fe       1.27957324      12.28456549     135.47937918       0.00020125       0.00015577       0.00056264        0        0       -1       58       26
Fe      -0.13435116      13.57163116     136.98607272       0.00027443      -0.00012037       0.00042973        0        0       -1       58       26
Fe       1.27968876      15.07013557     135.64538305       0.00022191       0.00023358       0.00031114        0        0       -1       58       26
Fe      -0.13420400      16.35597025     137.16961053       0.00011579      -0.00021030       0.00023187        0        0       -1       58       26
Fe       1.27986179      17.83190335     135.83096538       0.00016298       0.00003019      -0.00023121        0        0       -1       58       26
Fe      -0.13402786      19.14425941     137.35250912       0.00014371       0.00050626       0.00003193        0        0       -1       58       26
Fe       1.28006991      20.62037735     136.02386238       0.00014026       0.00040795      -0.00009543        0        0       -1       58       26
Fe      -0.13387780      21.95611977     137.53629449       0.00025792       0.00040529      -0.00016519        0        0       -1       58       26
Fe       1.28020307      23.44731483     136.22076494       0.00017845      -0.00009365      -0.00011250        0        0       -1       58       26
Fe      -0.13376913      24.79264331     137.72418532       0.00041787      -0.00027701      -0.00027806        0        0       -1       58       26
Fe       1.28030269      26.30340204     136.41926519       0.00033710      -0.00002269      -0.00013943        0        0       -1       58       26
Fe      -0.13364920      27.64426315     137.91662842       0.00057065       0.00058916       0.00019718        0        0       -1       58       26
Fe       1.28039710      29.17206715     136.61555457       0.00038333       0.00050222      -0.00004979        0        0       -1       58       26
Fe      -0.13350589      30.49589011     138.11214961       0.00051906       0.00021594       0.00011332        0        0       -1       58       26
Fe       1.28050887      32.02757229     136.80365558       0.00040447       0.00010726       0.00031165        0        0       -1       58       26
Fe      -0.13334207      33.32857470     138.30818353       0.00037189      -0.00006714       0.00013200        0        0       -1       58       26
Fe       1.28066447      34.84374272     136.98608015       0.00029084      -0.00008505       0.00038774        0        0       -1       58       26
Fe      -0.13317702      36.13592223     138.50029613       0.00015295      -0.00024078       0.00015844        0        0       -1       58       26
Fe       1.28084331      37.62807382     137.16959853       0.00007578      -0.00013787       0.00032507        0        0       -1       58       26
Fe      -0.13302654      38.93429669     138.68401492       0.00004217       0.00020182       0.00018669        0        0       -1       58       26
Fe       1.28104325      40.41635257     137.35248854       0.00002942       0.00062753       0.00006119        0        0       -1       58       26
Fe      -0.13288203      41.74166205     138.86217743       0.00007677       0.00040433      -0.00029465        0        0       -1       58       26
Fe       1.28120309       0.68400432     137.53629889       0.00007889       0.00031073      -0.00032886        0        0       -1       58       26
Fe      -0.13276399       2.02089115     139.04142931       0.00015584      -0.00029032      -0.00043008        0        0       -1       58       26
Fe       1.28130209       3.52052603     137.72418416       0.00023066      -0.00017703      -0.00019431        0        0       -1       58       26
Fe      -0.13262761       4.85796857     139.22679301       0.00024015      -0.00014538      -0.00012142        0        0       -1       58       26
Fe       1.28139979       6.37217181     137.91663689       0.00039792       0.00041484       0.00007621        0        0       -1       58       26
Fe      -0.13244949       7.70007458     139.41979914       0.00018019       0.00013889      -0.00003588        0        0       -1       58       26
Fe       1.28151715       9.22379520     138.11215430       0.00038980       0.00021393       0.00016537        0        0       -1       58       26
Fe      -0.13228627      10.53581376     139.61933397       0.00005535      -0.00009309      -0.00016379        0        0       -1       58       26
Fe       1.28165750      12.05648167     138.30818255       0.00029146      -0.00024989       0.00014717        0        0       -1       58       26
Fe      -0.13215489      13.35767222     139.81928241      -0.00010432      -0.00001042      -0.00014055        0        0       -1       58       26
Fe       1.28180460      14.86381502     138.50028690       0.00012659      -0.00031688       0.00021550        0        0       -1       58       26
Fe      -0.13203087      16.16937240     140.01027362      -0.00011586       0.00017265       0.00012851        0        0       -1       58       26
Fe       1.28194414      17.66218315     138.68401470       0.00007075       0.00020749       0.00024210        0        0       -1       58       26
Fe      -0.13191750      18.98049215     140.19045439      -0.00007195       0.00036422       0.00022353        0        0       -1       58       26
Fe       1.28208969      20.46956085     138.86216929       0.00013073       0.00042090      -0.00009646        0        0       -1       58       26
Fe      -0.13176446      21.79858173     140.36630406      -0.00007090      -0.00043834      -0.00046775        0        0       -1       58       26
Fe       1.28221878      23.29303970     139.04143954       0.00020853      -0.00051035      -0.00050601        0        0       -1       58       26
Fe      -0.13157845      24.62550296     140.54544636      -0.00024027      -0.00059132      -0.00013414        0        0       -1       58       26
Fe       1.28237617      26.13009500     139.22679562       0.00024328      -0.00012775      -0.00005238        0        0       -1       58       26
Fe      -0.13136305      27.45820675     140.73276981      -0.00047171      -0.00021575      -0.00009761        0        0       -1       58       26
Fe       1.28257438      28.97219156     139.41979675       0.00011553       0.00010382      -0.00004012        0        0       -1       58       26
Fe      -0.13117278      30.29049510     140.92925744      -0.00070667      -0.00028502      -0.00044702        0        0       -1       58       26
Fe       1.28274311      31.80790785     139.61930909      -0.00001952       0.00002920      -0.00003151        0        0       -1       58       26
Fe      -0.13104790      33.11732144     141.13086890      -0.00073052       0.00026741      -0.00016636        0        0       -1       58       26
Fe       1.28286643      34.62977118     139.81927417      -0.00014212       0.00009642      -0.00016225        0        0       -1       58       26
Fe      -0.13098707      35.93859008     141.32846147      -0.00052307       0.00012590      -0.00047193        0        0       -1       58       26
Fe       1.28297198      37.44149291     140.01027690      -0.00008538       0.00006303      -0.00002884        0        0       -1       58       26
Fe      -0.13094082      38.75685931     141.51518067      -0.00024013       0.00033244       0.00022480        0        0       -1       58       26
Fe       1.28306274      40.25261819     140.19046530       0.00001028       0.00023672       0.00010530        0        0       -1       58       26
Fe      -0.13086411      41.57576243     141.69313695      -0.00000968      -0.00012099       0.00008579        0        0       -1       58       26
Fe       1.28318987       0.52645726     140.36630574       0.00008615      -0.00038478      -0.00045896        0        0       -1       58       26
Fe      -0.13070320       1.85372858     141.86966880      -0.00003217      -0.00025366       0.00004345        0        0       -1       58       26
Fe       1.28335573       3.35336060     140.54543577      -0.00001143      -0.00050150      -0.00011115        0        0       -1       58       26
Fe      -0.13049629       4.67949011     142.05169157      -0.00024854       0.00009792       0.00015690        0        0       -1       58       26
Fe       1.28356287       6.18605727     140.73275973      -0.00020309      -0.00014265      -0.00009170        0        0       -1       58       26
Fe      -0.13028682       7.50677578     142.24280486      -0.00058370       0.00012827      -0.00025533        0        0       -1       58       26
Fe       1.28376370       9.01835203     140.92926287      -0.00047167      -0.00017359      -0.00047865        0        0       -1       58       26
Fe      -0.13014129      10.33315878     142.44150363      -0.00074322       0.00024024      -0.00047430        0        0       -1       58       26
Fe       1.28391344      11.84520185     141.13089692      -0.00058312       0.00025943      -0.00034312        0        0       -1       58       26
Fe      -0.13005119      13.15823078     142.64114255      -0.00067462       0.00022555      -0.00038194        0        0       -1       58       26
Fe       1.28400713      14.66648051     141.32847211      -0.00048146       0.00022056      -0.00031518        0        0       -1       58       26
Fe      -0.12997815      15.98216375     142.83405192      -0.00047569      -0.00000585      -0.00049267        0        0       -1       58       26
Fe       1.28408978      17.48475394     141.51519943      -0.00031317       0.00034631       0.00012981        0        0       -1       58       26
Fe      -0.12988116      18.80484090     143.01750719      -0.00023029       0.00011595       0.00003178        0        0       -1       58       26
Fe       1.28419935      20.30363607     141.69313508      -0.00018508       0.00001928       0.00006901        0        0       -1       58       26
Fe      -0.12972897      21.62692763     143.19552984      -0.00008929       0.00009439       0.00013007        0        0       -1       58       26
Fe       1.28437907      23.12584630     141.86966669      -0.00025721      -0.00020844       0.00000734        0        0       -1       58       26
Fe      16.85044871      24.44936154     143.37488524      -0.00003784       0.00072669       0.00047227       -1        0       -1       58       26
Fe       1.28458463      25.95163034     142.05168743      -0.00045217       0.00014274       0.00026284        0        0       -1       58       26
Fe      -0.12940377      27.27261185     143.56093271      -0.00002657       0.00045966       0.00006825        0        0       -1       58       26
Fe       1.28477190      28.77894493     142.24281750      -0.00069026      -0.00007033      -0.00036412        0        0       -1       58       26
Fe      -0.12931626      30.09652967     143.75477372      -0.00001804       0.00043826      -0.00010187        0        0       -1       58       26
Fe       1.28488770      31.60531229     142.44149204      -0.00076653       0.00019168      -0.00025211        0        0       -1       58       26
Fe      -0.12927875      32.92152297     143.95271624       0.00002169       0.00002805      -0.00017789        0        0       -1       58       26
Fe       1.28494952      34.43036409     142.64114164      -0.00065834      -0.00002542      -0.00051442        0        0       -1       58       26
Fe      -0.12921657      35.74759795     144.14844070      -0.00002975      -0.00007685      -0.00031273        0        0       -1       58       26
Fe       1.28499820      37.25423772     142.83402013      -0.00045318       0.00022175      -0.00028831        0        0       -1       58       26
Fe      -0.12909501      38.57355489     144.33735051      -0.00011997       0.00037777      -0.00004104        0        0       -1       58       26
Fe       1.28507379      40.07693019     143.01747700      -0.00020614       0.00012249       0.00021159        0        0       -1       58       26
Fe      -0.12890930      41.39796582     144.51963990      -0.00024622      -0.00015559      -0.00017597        0        0       -1       58       26
Fe       1.28521321       0.35479750     143.19552616      -0.00007565       0.00010810       0.00018275        0        0       -1       58       26
Fe      -0.12870696       1.67617859     144.69960167      -0.00031166       0.00036400       0.00001381        0        0       -1       58       26
Fe       1.28539457       3.17723598     143.37489937      -0.00008576       0.00060992       0.00035371        0        0       -1       58       26
Fe      -0.12855623       4.49750647     144.88259530      -0.00026938       0.00064929       0.00022114        0        0       -1       58       26
Fe       1.28555945       6.00046104     143.56093486      -0.00015716       0.00061893       0.00007437        0        0       -1       58       26
Fe      -0.12849588       7.31913791     145.07175694      -0.00004416       0.00015528      -0.00002519        0        0       -1       58       26
Fe       1.28567201       8.82439133     143.75477153      -0.00020780       0.00030876      -0.00026379        0        0       -1       58       26
Fe      -0.12849173      10.14238935     145.26608986       0.00023613       0.00000590      -0.00006882        0        0       -1       58       26
Fe       1.28573188      11.64937177     143.95269505      -0.00016887       0.00031131      -0.00010593        0        0       -1       58       26
Fe      -0.12846454      12.96809013     145.46154772       0.00041456      -0.00038922      -0.00015012        0        0       -1       58       26
Fe       1.28580651      14.47550558     144.14844298      -0.00011871      -0.00026064      -0.00045851        0        0       -1       58       26
Fe      -0.12833668      15.79519661     145.65356989       0.00034241       0.00026501       0.00017388        0        0       -1       58       26
Fe       1.28593689      17.30148119     144.33737098      -0.00008983       0.00022505      -0.00018730        0        0       -1       58       26
Fe      -0.12810291      18.62176303     145.84028893      -0.00003515       0.00031499       0.00001389        0        0       -1       58       26
Fe       1.28612946      20.12589026     144.51965446      -0.00014214      -0.00023397      -0.00017711        0        0       -1       58       26
Fe      -0.12783683      21.44603299     146.02308833      -0.00053059      -0.00028210      -0.00022413        0        0       -1       58       26
Fe       1.28633494      22.94832277     144.69960560      -0.00018890       0.00029862       0.00002561        0        0       -1       58       26
Fe      -0.12763036      24.26775691     146.20579203      -0.00090338      -0.00012701      -0.00036383        0        0       -1       58       26
Fe       1.28648492      25.76963573     144.88259998      -0.00016091       0.00054686       0.00017386        0        0       -1       58       26
Fe      -0.12754519      27.08830957     146.39183337      -0.00093164      -0.00009751       0.00015742        0        0       -1       58       26
Fe       1.28653870      28.59124893     145.07176471       0.00004194       0.00024368       0.00007317        0        0       -1       58       26
Fe      -0.12755737      29.90982471     146.58242065      -0.00060959      -0.00014486       0.00000865        0        0       -1       58       26
Fe       1.28652864      31.41451063     145.26612191       0.00030130       0.00004057      -0.00012032        0        0       -1       58       26