17340
Lattice="16.98 0.0 0.0 0.0 76.14751211 0.0 0.0 0.0 152.26134747" Properties=species:S:1:pos:R:3:force:R:3:map_shift:I:3:n_neighb:I:1:Z:I:1 virial="-251.11535941 57.63764786 73.066057 57.63764786 -162.06919107 -0.12240789 73.066057 -0.12240789 -377.83286355" cutoff=5.3 adsorbate_info=T nneightol=1.2 energy=-69483.05876475 pbc="T T T"
Fe       0.30553261      11.81855920     113.78942228       0.00013570       0.00015265      -0.00115464        0        0       -1       54       26
Fe       0.27234761       1.84479341     115.87921941       0.00089640      -0.00034343       0.00016691        0        0       -1       58       26
Fe       1.70924296       3.84528884     115.84451719       0.00046878      -0.00000363       0.00027662        0        0       -1       58       26
Fe       0.21267854       3.95100912     117.86140998       0.00032723      -0.00004981       0.00023755        0        0       -1       58       26
Fe       1.63468096       5.95206676     117.81863986      -0.00009308      -0.00020147       0.00018644        0        0       -1       58       26
Fe       0.15976312       6.07185193     119.81474842       0.00014469       0.00001031       0.00032179        0        0       -1       58       26
Fe       1.56585124       8.07910431     119.75371170      -0.00031063      -0.00025900       0.00026418        0        0       -1       58       26
Fe       0.10828153       8.19532806     121.73604030       0.00016275      -0.00004729       0.00039088        0        0       -1       58       26
Fe       1.50382337      10.20465923     121.64055348      -0.00021164      -0.00028862       0.00051540        0        0       -1       58       26
Fe       0.06336608      10.31483135     123.61890102       0.00005582      -0.00034131       0.00034309        0        0       -1       58       26
Fe       1.45640823      12.31801490     123.47891507      -0.00004493      -0.00032422      -0.00043474        0        0       -1       58       26
Fe       0.02993531      12.42570667     125.47095342      -0.00000303      -0.00068459      -0.00066593        0        0       -1       58       26
Fe       1.42653126      14.42005252     125.31897668      -0.00007321      -0.00063788      -0.00095130        0        0       -1       58       26
Fe       0.00866481      14.52930739     127.32903391      -0.00036053      -0.00042518      -0.00085234        0        0       -1       58       26
Fe       1.41023191      16.52130119     127.20114632      -0.00015527      -0.00057944      -0.00025476        0        0       -1       58       26
Fe      -0.00334902      16.63224272     129.21492971      -0.00037881      -0.00036459      -0.00024444        0        0       -1       58       26
Fe       1.40265400      18.62508039     129.10740688      -0.00005061      -0.00054653       0.00020135        0        0       -1       58       26
Fe      -0.00909647      18.73703235     131.11938222      -0.00000939      -0.00003412       0.00014352        0        0       -1       58       26
Fe       1.40061923      20.73156550     131.02496251       0.00013140      -0.00007703       0.00083808        0        0       -1       58       26
Fe      -0.01072697      20.84410168     133.03314679      -0.00006962       0.00042651       0.00055366        0        0       -1       58       26
Fe       1.40176928      22.84052272     132.94603509      -0.00018584       0.00019197       0.00034475        0        0       -1       58       26
Fe      -0.01007344      22.95343253     134.95016696      -0.00030570      -0.00009204       0.00032957        0        0       -1       58       26
Fe       1.40427234      24.95150432     134.86490539      -0.00064079      -0.00019665      -0.00022730        0        0       -1       58       26
Fe      -0.00862615      25.06397390     136.86555196      -0.00043144      -0.00063446      -0.00015155        0        0       -1       58       26
Fe       1.40674376      27.06316394     136.77793254      -0.00038739      -0.00059236      -0.00004335        0        0       -1       58       26
Fe      -0.00724988      27.17447784     138.77619386      -0.00011126      -0.00076411      -0.00019053        0        0       -1       58       26
Fe       1.40867259      29.17424071     138.68377119      -0.00015270      -0.00064939      -0.00038535        0        0       -1       58       26
Fe      -0.00618248      29.28415105     140.68086253       0.00011269      -0.00068563      -0.00011496        0        0       -1       58       26
Fe       1.40997758      31.28390042     140.58228305       0.00005481      -0.00078616      -0.00011409        0        0       -1       58       26
Fe      -0.00545971      31.39242917     142.57954829      -0.00004384      -0.00083097      -0.00015372        0        0       -1       58       26
Fe       1.41072284      33.39165483     142.47536062      -0.00027646      -0.00075086      -0.00020170        0        0       -1       58       26
Fe      -0.00521635      33.49891216     144.47357940       0.00010599      -0.00063849      -0.00016197        0        0       -1       58       26
Fe       1.41080240      35.49752246     144.36499420      -0.00013781      -0.00071019      -0.00006580        0        0       -1       58       26
Fe      -0.00534487      35.60378138     146.36429478      -0.00013335      -0.00060895      -0.00001613        0        0       -1       58       26
Fe       1.41042468      37.60192379     146.25319396      -0.00016284      -0.00069079      -0.00001802        0        0       -1       58       26
Fe      -0.00581761      37.70733030     148.25331455       0.00020269      -0.00048807      -0.00002446        0        0       -1       58       26
Fe       1.64126257      -0.15111655     115.94172547       0.00093073      -0.00031190      -0.00024534        0        0       -1       59       26
Fe       0.14023425      -0.03169316     118.01182708       0.00083391      -0.00032029      -0.00008137        0        0       -1       59       26
Fe       1.60212180       1.95566876     117.91788234       0.00078467      -0.00026073       0.00016981        0        0       -1       58       26
Fe       0.13195602       2.07788327     119.94815930       0.00067093      -0.00030542       0.00001354        0        0       -1       58       26
Fe       1.56831759       4.07145376     119.87436647       0.00031440       0.00017789       0.00015558        0        0       -1       58       26
Fe       0.11063173       4.19101485     121.88473407       0.00034705       0.00008932      -0.00001008        0        0       -1       58       26
Fe       1.53040438       6.19041107     121.81121989       0.00026089       0.00016478       0.00062769        0        0       -1       58       26
Fe       0.08303176       6.30666157     123.80859094       0.00038606      -0.00058472       0.00063739        0        0       -1       58       26
Fe       1.49258652       8.30941496     123.72251829       0.00029919      -0.00051045       0.00066255        0        0       -1       58       26
Fe       0.05544950       8.42206692     125.71259288       0.00043516      -0.00026284       0.00022560        0        0       -1       58       26
Fe       1.46026387      10.42494731     125.60433722       0.00035777      -0.00039216       0.00029724        0        0       -1       58       26
Fe       0.03226483      10.53486474     127.59485499       0.00019617      -0.00014483       0.00030273        0        0       -1       58       26
Fe       1.43651387      12.53417921     127.46723740      -0.00000845      -0.00039444      -0.00052141        0        0       -1       58       26
Fe       0.01519154      12.64319943     129.46588174       0.00007484       0.00018359      -0.00053305        0        0       -1       58       26
Fe       1.42116897      14.63881736     129.33682357      -0.00026632       0.00003459      -0.00071164        0        0       -1       58       26
Fe       0.00403073      14.74872331     131.34304654      -0.00016421       0.00017622      -0.00036817        0        0       -1       58       26
Fe       1.41228699      16.74312227     131.22567422      -0.00023136      -0.00000350       0.00001907        0        0       -1       58       26
Fe      -0.00255368      16.85418396     133.23419476       0.00009040       0.00005657      -0.00001374        0        0       -1       58       26
Fe       1.40797219      18.84891249     133.12892627      -0.00004907       0.00001926      -0.00003672        0        0       -1       58       26
Fe      -0.00576661      18.96085165     135.13650669      -0.00032665      -0.00027451       0.00013852        0        0       -1       58       26
Fe       1.40667956      20.95667294     135.03975384      -0.00053042      -0.00022451       0.00074735        0        0       -1       58       26
Fe      -0.00698467      21.06885812     137.04512919      -0.00053027      -0.00085776       0.00064824        0        0       -1       58       26
Fe       1.40683921      23.06588152     136.95355196      -0.00061413      -0.00050634       0.00020177        0        0       -1       58       26
Fe      -0.00725695      23.17737758     138.95634048      -0.00051418      -0.00100364       0.00030944        0        0       -1       58       26
Fe       1.40744424      25.17548885     138.86615148      -0.00027574      -0.00079978      -0.00005832        0        0       -1       58       26
Fe      16.97279163      25.28583533     140.86675230      -0.00040555      -0.00093761       0.00027997       -1        0       -1       58       26
Fe       1.40808171      27.28471336     140.77497532      -0.00016155      -0.00079359      -0.00002094        0        0       -1       58       26
Fe      -0.00711271      27.39395506     142.77423199       0.00014477      -0.00108577      -0.00002550        0        0       -1       58       26
Fe       1.40858861      29.39311666     142.67883142      -0.00012627      -0.00106621      -0.00005231        0        0       -1       58       26
Fe      -0.00695577      29.50101561     144.67759785       0.00005928      -0.00095950       0.00018276        0        0       -1       58       26
Fe       1.40884916      31.50001995     144.57777146       0.00001607      -0.00087350      -0.00022640        0        0       -1       58       26
Fe      -0.00696044      31.60674007     146.57681268       0.00019490      -0.00071239       0.00001261        0        0       -1       58       26
Fe       1.40882011      33.60539281     146.47262311       0.00014653      -0.00080654      -0.00036828        0        0       -1       58       26
Fe      -0.00712569      33.71110343     148.47236763       0.00026759      -0.00063935      -0.00020888        0        0       -1       58       26
Fe       1.40850947      35.70930164     148.36416962       0.00053149      -0.00056521      -0.00000804        0        0       -1       58       26
Fe      -0.00741556      35.81415281     150.36458214       0.00054489      -0.00033858       0.00002346        0        0       -1       58       26
Fe       1.40817125      37.81205518     150.25375929       0.00025236      -0.00022715      -0.00019338        0        0       -1       58       26
Fe       1.51146402       0.09117503     120.05662581       0.00058082      -0.00016676      -0.00007423        0        0       -1       58       26
Fe       0.06939182       0.20804646     122.08655327       0.00036735      -0.00003558      -0.00018011        0        0       -1       58       26
Fe       1.50976091       2.19712259     121.97114087       0.00045357       0.00018108      -0.00002533        0        0       -1       58       26
Fe       0.06857596       2.31327445     123.98805061       0.00039027      -0.00011231       0.00035336        0        0       -1       58       26
Fe       1.49480674       4.30792015     123.89286136       0.00038064      -0.00053759       0.00011632        0        0       -1       58       26
Fe       0.05740234       4.42245439     125.89907563       0.00059213      -0.00015038       0.00063396        0        0       -1       58       26
Fe       1.47450174       6.42078173     125.80673340       0.00055592      -0.00005167       0.00034374        0        0       -1       58       26
Fe       0.04245510       6.53367016     127.80540330       0.00064616      -0.00005393       0.00040155        0        0       -1       58       26
Fe       1.45448312       8.53384076     127.70548862       0.00043266      -0.00020495       0.00040217        0        0       -1       58       26
Fe       0.02788722       8.64510805     129.70062530       0.00028183      -0.00026609       0.00038180        0        0       -1       58       26
Fe       1.43776321      10.64482411     129.58890974       0.00019793      -0.00003631       0.00013589        0        0       -1       58       26
Fe       0.01571734      10.75480708     131.58533191       0.00019090       0.00048550      -0.00004084        0        0       -1       58       26
Fe       1.42540276      12.75274647     131.46585570       0.00010747       0.00022285      -0.00044499        0        0       -1       58       26
Fe       0.00670382      12.86286376     133.46649613       0.00003925      -0.00031326      -0.00035324        0        0       -1       58       26
Fe       1.41721190      14.85911047     133.34809553      -0.00002378      -0.00016455      -0.00000883        0        0       -1       58       26
Fe       0.00066863      14.96963246     135.35226683      -0.00012893      -0.00004208      -0.00003789        0        0       -1       58       26
Fe       1.41236095      16.96538794     135.24095530      -0.00037395      -0.00016463      -0.00011104        0        0       -1       58       26
Fe      -0.00309317      17.07648953     137.24630343      -0.00019350      -0.00084846       0.00004790        0        0       -1       58       26
Fe       1.40975483      19.07253271     137.14255051      -0.00039562      -0.00074831       0.00025958        0        0       -1       58       26
Fe      -0.00533297      19.18339006     139.14741470      -0.00018510      -0.00137319       0.00021388        0        0       -1       58       26
Fe       1.40852994      21.18008634     139.04950441      -0.00062784      -0.00111061       0.00042775        0        0       -1       58       26
Fe      -0.00661541      21.28999133     141.05305734      -0.00027372      -0.00086218       0.00011723        0        0       -1       58       26
Fe       1.40791878      23.28761666     140.95867274      -0.00049535      -0.00100203       0.00045443        0        0       -1       58       26
Fe      -0.00747789      23.39678160     142.96064207       0.00008187      -0.00078344       0.00032522        0        0       -1       58       26
Fe       1.40753471      25.39514540     142.86742752       0.00009556      -0.00101327       0.00032947        0        0       -1       58       26
Fe      -0.00801193      25.50337323     144.86819806       0.00041381      -0.00079662       0.00019478        0        0       -1       58       26
Fe       1.40741665      27.50208064     144.77392419       0.00010386      -0.00099056       0.00015891        0        0       -1       58       26
Fe      -0.00820310      27.60927811     146.77407656       0.00002176      -0.00066813       0.00015243        0        0       -1       58       26
Fe       1.40735010      29.60799000     146.67710947       0.00025537      -0.00066250       0.00017042        0        0       -1       58       26
Fe      -0.00835667      29.71422997     148.67729724       0.00009397      -0.00052540      -0.00018508        0        0       -1       58       26
Fe       1.40723963      31.71271510     148.57664810       0.00025832      -0.00059186       0.00012087        0        0       -1       58       26
Fe      -0.00846621      31.81804769     150.57725939      -0.00021321      -0.00037373      -0.00018343        0        0       -1       58       26
Fe       1.40705171      33.81616034     150.47280719       0.00025561      -0.00028225      -0.00031664        0        0       -1       58       26
Fe       1.46578701       0.32181841     124.10622731       0.00023793      -0.00012984       0.00031329        0        0       -1       58       26
Fe       0.03724095       0.43399432     126.11919217       0.00030227      -0.00005941       0.00037109        0        0       -1       58       26
Fe       1.46462399       2.42715694     126.00033301       0.00052905      -0.00007396       0.00042141        0        0       -1       58       26
Fe       0.03577778       2.53970614     128.00912827       0.00052500       0.00021859       0.00007922        0        0       -1       58       26
Fe       1.45610194       4.53558284     127.90377360       0.00077836       0.00001596       0.00046581        0        0       -1       58       26
Fe       0.02922765       4.64791804     129.90723132       0.00051617      -0.00016991       0.00026256        0        0       -1       58       26
Fe       1.44506200       6.64581167     129.80454034       0.00052185      -0.00036327       0.00027433        0        0       -1       58       26
Fe       0.02093875       6.75717359     131.80402665       0.00048990       0.00026655       0.00007689        0        0       -1       58       26
Fe       1.43434311       8.75588027     131.69744275       0.00038388       0.00027867      -0.00004083        0        0       -1       58       26
Fe       0.01300229       8.86674701     133.69535396       0.00035576      -0.00009022      -0.00001103        0        0       -1       58       26
Fe       1.42541731      10.86520012     133.58326011       0.00025327      -0.00016641      -0.00026898        0        0       -1       58       26
Fe       0.00637128      10.97551486     135.58215552       0.00058131      -0.00029009      -0.00026304        0        0       -1       58       26
Fe       1.41877171      12.97304606     135.46746875       0.00025210       0.00011351      -0.00030286        0        0       -1       58       26
Fe       0.00144948      13.08329318     137.46849560       0.00009954      -0.00062584      -0.00020079        0        0       -1       58       26
Fe       1.41426427      15.08019484     137.35564851      -0.00035180      -0.00072875       0.00002668        0        0       -1       58       26
Fe      -0.00214012      15.19011752     139.35836326      -0.00021179      -0.00165599       0.00012428        0        0       -1       58       26
Fe       1.41115287      17.18686642     139.25056319       0.00003966      -0.00157362      -0.00002589        0        0       -1       58       26
Fe      -0.00479488      17.29580250     141.25392433       0.00021894      -0.00103954      -0.00015159        0        0       -1       58       26
Fe       1.40914061      19.29282942     141.15131239       0.00023050      -0.00094524      -0.00012972        0        0       -1       58       26
Fe      -0.00657637      19.40128720     143.15431441       0.00023549      -0.00070467      -0.00038327        0        0       -1       58       26
Fe       1.40781929      21.39887467     143.05586251       0.00035895      -0.00071610       0.00002648        0        0       -1       58       26
Fe      -0.00787167      21.50690875     145.05803556       0.00041946      -0.00090365      -0.00008945        0        0       -1       58       26
Fe       1.40685758      23.50498669     144.96231341       0.00081559      -0.00075836       0.00014867        0        0       -1       58       26
Fe      -0.00881099      23.61232032     146.96373273       0.00081678      -0.00100257       0.00006464        0        0       -1       58       26
Fe       1.40634128      25.61070974     146.86907027       0.00059860      -0.00075732       0.00002224        0        0       -1       58       26
Fe      -0.00932220      25.71725831     148.87003481       0.00065721      -0.00089027      -0.00001015        0        0       -1       58       26
Fe       1.40608645      27.71572817     148.77468544       0.00037691      -0.00059825      -0.00013170        0        0       -1       58       26
Fe      -0.00959239      27.82148899     150.77568509       0.00030196      -0.00060047      -0.00026170        0        0       -1       58       26
Fe       1.40594090      29.81982829     150.67806827       0.00002590      -0.00047694      -0.00021115        0        0       -1       58       26
Fe       1.44217331       0.54521810     128.12766357       0.00036060      -0.00001450       0.00007171        0        0       -1       58       26
Fe       0.01959395       0.65611739     130.13304033       0.00047182      -0.00016469       0.00011114        0        0       -1       58       26
Fe       1.44057330       2.65159295     130.01533006       0.00036715      -0.00005702      -0.00004082        0        0       -1       58       26
Fe       0.01795454       2.76287265     132.01961306       0.00053685      -0.00037699       0.00005715        0        0       -1       58       26
Fe       1.43543327       4.75948109     131.90975156       0.00058308       0.00007689       0.00051102        0        0       -1       58       26
Fe       0.01391466       4.87071956     133.91158497       0.00063670      -0.00024215       0.00035873        0        0       -1       58       26
Fe       1.42919764       6.86838224     133.80373372       0.00047949      -0.00004775       0.00011833        0        0       -1       58       26
Fe       0.00919422       6.97925071     135.80358328       0.00039329      -0.00056972      -0.00011360        0        0       -1       58       26
Fe       1.42324930       8.97737236     135.69403047       0.00054401      -0.00025614       0.00005646        0        0       -1       58       26
Fe       0.00470042       9.08762915     137.69320001       0.00037443      -0.00079057      -0.00004661        0        0       -1       58       26
Fe       1.41831998      11.08568974     137.58161114       0.00029947      -0.00085139      -0.00015338        0        0       -1       58       26
Fe       0.00089440      11.19505647     139.58136471       0.00009557      -0.00125629      -0.00031467        0        0       -1       58       26
Fe       1.41448198      13.19286708     139.46944867      -0.00003588      -0.00155840      -0.00023182        0        0       -1       58       26
Fe      -0.00230047      13.30105285     141.47022458       0.00023226      -0.00106742       0.00012854        0        0       -1       58       26
Fe       1.41143990      15.29861099     141.36052127       0.00024688      -0.00115156       0.00007741        0        0       -1       58       26
Fe      -0.00488099      15.40621570     143.36212387       0.00072208      -0.00081594       0.00002272        0        0       -1       58       26
Fe       1.40919988      17.40380868     143.25646005       0.00052086      -0.00078483      -0.00023855        0        0       -1       58       26
Fe      -0.00668994      17.51109435     145.25823401       0.00026192      -0.00094580      -0.00032380        0        0       -1       58       26
Fe       1.40764810      19.50899673     145.15651124       0.00026313      -0.00107085      -0.00036778        0        0       -1       58       26
Fe      -0.00814363      19.61577522     147.15801563       0.00044596      -0.00100704      -0.00054898        0        0       -1       58       26
Fe       1.40639273      21.61404228     147.05965828       0.00059848      -0.00109578      -0.00009725        0        0       -1       58       26
Fe      -0.00931595      21.72029423     149.06079936       0.00076983      -0.00097481      -0.00015996        0        0       -1       58       26
Fe       1.40555793      23.71879292     148.96493160       0.00047699      -0.00101260      -0.00010154        0        0       -1       58       26
Fe      -0.01009440      23.82446210     150.96591827       0.00057944      -0.00047491      -0.00012476        0        0       -1       58       26
Fe       1.40504050      25.82303225     150.87109979       0.00043847      -0.00056550      -0.00002290        0        0       -1       58       26
Fe       1.42882732       0.76671424     132.13637626       0.00043240      -0.00038602       0.00018392        0        0       -1       58       26
Fe       0.00941644       0.87703902     134.13833786       0.00027216      -0.00039580       0.00013534        0        0       -1       58       26
Fe       1.42726530       2.87376473     134.02251419       0.00046823      -0.00046588       0.00024757        0        0       -1       58       26
Fe       0.00801408       2.98424232     136.02443865       0.00012835      -0.00053403      -0.00006426        0        0       -1       58       26
Fe       1.42408494       4.98151329     135.91286599       0.00047072      -0.00044153       0.00002892        0        0       -1       58       26
Fe       0.00545156       5.09171605     137.91369654       0.00027368      -0.00090156       0.00011093        0        0       -1       58       26
Fe       1.42044046       7.08955716     137.80346139       0.00035600      -0.00107353      -0.00009925        0        0       -1       58       26
Fe       0.00258987       7.19877087     139.80333998      -0.00002122      -0.00103850       0.00006707        0        0       -1       58       26
Fe       1.41697131       9.19692049     139.69263734       0.00006765      -0.00116721      -0.00009606        0        0       -1       58       26
Fe      16.97973533       9.30489778     141.69219862      -0.00002881      -0.00080542       0.00031632       -1        0       -1       58       26
Fe       1.41384766      11.30308839     141.58122398       0.00003186      -0.00077394      -0.00013376        0        0       -1       58       26
Fe      -0.00292807      11.41031355     143.58108228       0.00033065      -0.00096782      -0.00007215        0        0       -1       58       26
Fe       1.41113222      13.40840013     143.47080488       0.00053787      -0.00092397       0.00005340        0        0       -1       58       26
Fe      -0.00511310      13.51497627     145.47110562       0.00021507      -0.00086286       0.00012259        0        0       -1       58       26
Fe       1.40905539      15.51310214     145.36317471       0.00044874      -0.00090346       0.00004797        0        0       -1       58       26
Fe      -0.00687901      15.61909271     147.36369479       0.00021187      -0.00055856       0.00001947        0        0       -1       58       26
Fe       1.40746557      17.61746697     147.25928795       0.00014595      -0.00079818      -0.00018731        0        0       -1       58       26
Fe      -0.00835771      17.72309178     149.25968974       0.00035434      -0.00056695       0.00007474        0        0       -1       58       26
Fe       1.40613066      19.72171820     149.15884606       0.00013163      -0.00072378      -0.00029206        0        0       -1       58       26
Fe      -0.00960893      19.82698399     151.15909790       0.00040166      -0.00044599      -0.00018237        0        0       -1       58       26
Fe       1.40502422      21.82577906     151.06150812       0.00061185      -0.00044531      -0.00027516        0        0       -1       58       26
Fe       1.42101762       0.98708419     136.13938583       0.00013514      -0.00055944       0.00020910        0        0       -1       58       26
Fe       0.00335470       1.09670298     138.13989640      -0.00015054      -0.00079966       0.00003631        0        0       -1       58       26
Fe       1.41975504       3.09418557     138.02561977      -0.00004596      -0.00093083       0.00015802        0        0       -1       58       26
Fe       0.00218071       3.20312012     140.02635264      -0.00032194      -0.00104012       0.00013615        0        0       -1       58       26
Fe       1.41766258       5.20084679     139.91423260      -0.00016381      -0.00120797       0.00014368        0        0       -1       58       26
Fe       0.00035466       5.30869698     141.91458026      -0.00019331      -0.00072423       0.00011657        0        0       -1       58       26
Fe       1.41528266       7.30670013     141.80322990      -0.00031443      -0.00059877       0.00002146        0        0       -1       58       26
Fe      -0.00169851       7.41379370     143.80306538      -0.00021866      -0.00068652       0.00017579        0        0       -1       58       26
Fe       1.41282828       9.41204373     143.69184548       0.00003768      -0.00078066       0.00032266        0        0       -1       58       26
Fe      -0.00377822       9.51834359     145.69149968       0.00014969      -0.00068257       0.00019336        0        0       -1       58       26
Fe       1.41063427      11.51670243     145.58085226       0.00018412      -0.00087556       0.00007008        0        0       -1       58       26
Fe      -0.00555915      11.62225589     147.58049135      -0.00002472      -0.00039924       0.00019582        0        0       -1       58       26
Fe       1.40881822      13.62068710     147.47109073       0.00006002      -0.00044532       0.00021911        0        0       -1       58       26
Fe      -0.00715630      13.72582175     149.47074121       0.00036549      -0.00045824      -0.00004667        0        0       -1       58       26
Fe       1.40724336      15.72444583     149.36368216       0.00029932      -0.00047014       0.00005147        0        0       -1       58       26
Fe      16.97150594      15.82923333     151.36314799       0.00009409      -0.00047241       0.00020819       -1        0       -1       58       26