10812
Lattice="16.98 0.0 0.0 0.0 60.1666253 0.0 0.0 0.0 120.29139971" Properties=species:S:1:pos:R:3:force:R:3:map_shift:I:3:n_neighb:I:1:Z:I:1 nneightol=1.2 virial="-257.07896155 -54.56905765 73.55987414 -54.56905765 -150.39934597 0.53277957 73.55987414 0.53277957 -364.31214793" energy=-43297.21230247 cutoff=5.3 pbc="T T T"
Fe       0.39147658      12.15799285      89.79265774       0.00125639       0.00024159       0.00394003        0        0       -1       53       26
Fe       0.17987082       2.15562818      91.80709569      -0.00003519       0.00002691      -0.00000860        0        0       -1       58       26
Fe       1.62074637       4.15696223      91.77958054      -0.00003512       0.00004123      -0.00002458        0        0       -1       58       26
Fe       0.12907015       4.24430143      93.80064207      -0.00004501       0.00003482       0.00002764        0        0       -1       58       26
Fe       1.55636261       6.23864978      93.76442295      -0.00003600       0.00001985       0.00010299        0        0       -1       58       26
Fe       0.08258061       6.36703134      95.76193055      -0.00006705       0.00001906      -0.00009103        0        0       -1       58       26
Fe       1.49146195       8.37021117      95.70752437      -0.00007741       0.00000691      -0.00026804        0        0       -1       58       26
Fe       0.03343973       8.50943178      97.68421874      -0.00006395       0.00001551       0.00020792        0        0       -1       58       26
Fe       1.42778362      10.52135041      97.59021415      -0.00004983       0.00004980       0.00037860        0        0       -1       58       26
Fe      -0.01139403      10.65329499      99.55618731      -0.00009702       0.00000758      -0.00024372        0        0       -1       58       26
Fe       1.37847078      12.66028309      99.39822034      -0.00009387      -0.00000680      -0.00026355        0        0       -1       58       26
Fe      -0.04353356      12.78848465     101.37677790      -0.00009467       0.00001355       0.00015719        0        0       -1       58       26
Fe       1.35193949      14.78272201     101.18851201      -0.00009806       0.00002121       0.00007310        0        0       -1       58       26
Fe      -0.06065218      14.91397717     103.19357288      -0.00010645      -0.00000132      -0.00006003        0        0       -1       58       26
Fe       1.34270249      16.90618798     103.03781178      -0.00010616      -0.00000093      -0.00003008        0        0       -1       58       26
Fe      -0.06688287      17.03934724     105.04588084      -0.00011497      -0.00000196       0.00000801        0        0       -1       58       26
Fe       1.34261149      19.03326658     104.91044840      -0.00011449      -0.00000145      -0.00000191        0        0       -1       58       26
Fe      -0.06720894      19.16713955     106.91517608      -0.00012161      -0.00000870      -0.00000885        0        0       -1       58       26
Fe       1.34637903      21.16306551     106.78751366      -0.00012114      -0.00000908      -0.00000478        0        0       -1       58       26
Fe      -0.06505626      21.29682539     108.78833334      -0.00012742      -0.00001502      -0.00000459        0        0       -1       58       26
Fe       1.35078752      23.29389114     108.65981199      -0.00012669      -0.00001420      -0.00000442        0        0       -1       58       26
Fe      -0.06256774      23.42720492     110.65860137      -0.00013177      -0.00002050      -0.00000201        0        0       -1       58       26
Fe       1.35415865      25.42425489     110.52563864      -0.00013102      -0.00002026      -0.00000083        0        0       -1       58       26
Fe      -0.06080503      25.55722417     112.52475484      -0.00013506      -0.00002668      -0.00000216        0        0       -1       58       26
Fe       1.35597170      27.55357405     112.38857404      -0.00013446      -0.00002612      -0.00000176        0        0       -1       58       26
Fe      -0.06009103      27.68649546     114.38918350      -0.00013733      -0.00003260      -0.00000042        0        0       -1       58       26
Fe       1.35636011      29.68230815     114.25305166      -0.00013681      -0.00003221      -0.00000017        0        0       -1       58       26
Fe      -0.06030732      29.81536679     116.25467249      -0.00013848      -0.00003854      -0.00000036        0        0       -1       58       26
Fe       1.54838619       0.15734094      91.86158810      -0.00003384       0.00001470       0.00001954        0        0       -1       59       26
Fe       0.04895668       0.26550163      93.94374788      -0.00005477       0.00002729      -0.00001319        0        0       -1       59       26
Fe       1.51455898       2.25202187      93.85213054      -0.00004821       0.00002653       0.00000700        0        0       -1       58       26
Fe       0.04883040       2.37951601      95.88838430      -0.00006424       0.00002503      -0.00000261        0        0       -1       58       26
Fe       1.48804083       4.37028604      95.81702446      -0.00006357       0.00002103      -0.00002349        0        0       -1       58       26
Fe       0.03345042       4.50632679      97.82921435      -0.00007400       0.00001437       0.00002261        0        0       -1       58       26
Fe       1.45475210       6.50451591      97.75713189      -0.00007046       0.00002847       0.00007926        0        0       -1       58       26
Fe       0.00954850       6.64145639      99.75222414      -0.00008804       0.00001684      -0.00006109        0        0       -1       58       26
Fe       1.41906070       8.64517924      99.66431056      -0.00009019      -0.00000135      -0.00014387        0        0       -1       58       26
Fe      -0.01577403       8.77986023     101.64820947      -0.00009451       0.00001077       0.00009782        0        0       -1       58       26
Fe       1.38820026      10.78510014     101.53081698      -0.00009124       0.00002039       0.00016030        0        0       -1       58       26
Fe      -0.03688008      10.91711745     103.51217257      -0.00010802      -0.00000090      -0.00010193        0        0       -1       58       26
Fe       1.36698868      12.91841739     103.36286804      -0.00010706      -0.00000549      -0.00010000        0        0       -1       58       26
Fe      -0.05105819      13.04930136     105.35331087      -0.00011393       0.00000116       0.00005379        0        0       -1       58       26
Fe       1.35567766      15.04553389     105.19580849      -0.00011522       0.00000066       0.00002845        0        0       -1       58       26
Fe      -0.05877257      15.17749891     107.19645622      -0.00012182      -0.00001093      -0.00002571        0        0       -1       58       26
Fe       1.35131703      17.17236390     107.05090489      -0.00012184      -0.00001055      -0.00001497        0        0       -1       58       26
Fe      -0.06199135      17.30528568     109.05386771      -0.00012807      -0.00001453       0.00000027        0        0       -1       58       26
Fe       1.35076845      19.30070532     108.91823473      -0.00012789      -0.00001462      -0.00000334        0        0       -1       58       26
Fe      -0.06276201      19.43407052     110.92010904      -0.00013277      -0.00002145      -0.00000558        0        0       -1       58       26
Fe       1.35177757      21.43035960     110.78885969      -0.00013242      -0.00002119      -0.00000377        0        0       -1       58       26
Fe      -0.06256257      21.56374703     112.78919980      -0.00013613      -0.00002735      -0.00000208        0        0       -1       58       26
Fe       1.35295712      23.56045769     112.65794581      -0.00013567      -0.00002696      -0.00000223        0        0       -1       58       26
Fe      -0.06228931      23.69366366     114.65768393      -0.00013833      -0.00003336      -0.00000188        0        0       -1       58       26
Fe       1.35362946      25.69024406     114.52449307      -0.00013787      -0.00003309      -0.00000107        0        0       -1       58       26
Fe      16.91763279      25.82328943     116.52467294      -0.00013935      -0.00003936       0.00000017       -1        0       -1       58       26
Fe       1.35360723      27.81947208     116.38998016      -0.00013892      -0.00003902      -0.00000007        0        0       -1       58       26
Fe      -0.06287539      27.95246712     118.39091893      -0.00013926      -0.00004490      -0.00000038        0        0       -1       58       26
Fe       1.35301503      29.94841232     118.25606189      -0.00013897      -0.00004444      -0.00000040        0        0       -1       58       26
Fe       1.42558650       0.39514531      95.99760279      -0.00006420       0.00001843       0.00000742        0        0       -1       58       26
Fe      -0.01086711       0.52748998      98.03490627      -0.00007832       0.00001381      -0.00000725        0        0       -1       58       26
Fe       1.43094437       2.51425158      97.91615936      -0.00007635       0.00001966       0.00000346        0        0       -1       58       26
Fe      -0.00619841       2.64986087      99.93686791      -0.00008806       0.00001266      -0.00000382        0        0       -1       58       26
Fe       1.42073673       4.64309863      99.83834139      -0.00008727       0.00000856      -0.00001684        0        0       -1       58       26
Fe      -0.01362263       4.77934922     101.84508240      -0.00009766       0.00000554       0.00001298        0        0       -1       58       26
Fe       1.40355317       6.77753909     101.74780186      -0.00009549       0.00001001       0.00004204        0        0       -1       58       26
Fe      -0.02596307       6.91298231     103.74394104      -0.00010724       0.00000147      -0.00002640        0        0       -1       58       26
Fe       1.38579224       8.91411457     103.63540708      -0.00010693      -0.00000184      -0.00006190        0        0       -1       58       26
Fe      -0.03845106       9.04798695     105.62536103      -0.00011442      -0.00000319       0.00003565        0        0       -1       58       26
Fe       1.37131238      11.04932340     105.49848372      -0.00011369       0.00000009       0.00005813        0        0       -1       58       26
Fe      -0.04847441      11.18179010     107.48840271      -0.00012234      -0.00001146      -0.00003235        0        0       -1       58       26
Fe       1.36162249      13.18087391     107.34639740      -0.00012200      -0.00001189      -0.00003351        0        0       -1       58       26
Fe      -0.05527829      13.31284017     109.34118275      -0.00012798      -0.00001398       0.00001266        0        0       -1       58       26
Fe       1.35619083      15.30969135     109.19620766      -0.00012802      -0.00001406       0.00000656        0        0       -1       58       26
Fe      -0.05928035      15.44209674     111.19541717      -0.00013287      -0.00002250      -0.00000946        0        0       -1       58       26
Fe       1.35365346      17.43818759     111.05544531      -0.00013291      -0.00002195      -0.00000731        0        0       -1       58       26
Fe      -0.06143314      17.57109064     113.05606773      -0.00013648      -0.00002783      -0.00000049        0        0       -1       58       26
Fe       1.35267180      19.56732116     112.92115072      -0.00013639      -0.00002760      -0.00000169        0        0       -1       58       26
Fe      -0.06261891      19.70049766     114.92160413      -0.00013886      -0.00003426      -0.00000559        0        0       -1       58       26
Fe       1.35228245      21.69703355     114.78941479      -0.00013866      -0.00003381      -0.00000334        0        0       -1       58       26
Fe      -0.06346040      21.83025453     116.78954763      -0.00013997      -0.00003985       0.00000210        0        0       -1       58       26
Fe       1.35190994      23.82683694     116.65771942      -0.00013971      -0.00003955       0.00000097        0        0       -1       58       26
Fe      -0.06431248      23.95999232     118.65800365      -0.00013982      -0.00004552      -0.00000212        0        0       -1       58       26
Fe       1.35131056      25.95634547     118.52519545      -0.00013956      -0.00004518      -0.00000072        0        0       -1       58       26
Fe       1.39055582       0.66061596     100.06063202      -0.00008888       0.00001053       0.00000059        0        0       -1       58       26
Fe      -0.03374689       0.79402927     102.07870370      -0.00009919       0.00000484      -0.00000207        0        0       -1       58       26
Fe       1.39350154       2.78518513     101.95215634      -0.00009836       0.00000613       0.00000236        0        0       -1       58       26
Fe      -0.03228171       2.92011531     103.96338692      -0.00010755       0.00000015      -0.00000406        0        0       -1       58       26
Fe       1.38785612       4.91496559     103.84995055      -0.00010706       0.00000026      -0.00000911        0        0       -1       58       26
Fe      -0.03668562       5.05004308     105.85336370      -0.00011504      -0.00000534       0.00000562        0        0       -1       58       26
Fe       1.37892217       7.04784969     105.74059699      -0.00011433      -0.00000440       0.00001564        0        0       -1       58       26
Fe      -0.04324944       7.18231299     107.73774465      -0.00012186      -0.00001063      -0.00000924        0        0       -1       58       26
Fe       1.37007207       9.18167727     107.61757875      -0.00012178      -0.00001010      -0.00001970        0        0       -1       58       26
Fe      -0.04964170       9.31512414     109.61154379      -0.00012768      -0.00001622       0.00000856        0        0       -1       58       26
Fe       1.36296946      11.31435938     109.48086763      -0.00012744      -0.00001558       0.00001298        0        0       -1       58       26
Fe      -0.05481124      11.44704143     111.47513889      -0.00013264      -0.00002281      -0.00000826        0        0       -1       58       26
Fe       1.35803809      13.44511970     111.33706996      -0.00013276      -0.00002242      -0.00000951        0        0       -1       58       26
Fe      -0.05854379      13.57758681     113.33368984      -0.00013637      -0.00002839       0.00000186        0        0       -1       58       26
Fe       1.35491906      15.57465058     113.19428389      -0.00013650      -0.00002799       0.00000101        0        0       -1       58       26
Fe      -0.06114174      15.70731499     115.19290517      -0.00013887      -0.00003510      -0.00000674        0        0       -1       58       26
Fe       1.35295374      17.70400357     115.05600387      -0.00013893      -0.00003468      -0.00000672        0        0       -1       58       26
Fe      -0.06305854      17.83690554     117.05542404      -0.00014016      -0.00004033       0.00000625        0        0       -1       58       26
Fe       1.35155992      19.83361926     116.92162857      -0.00014013      -0.00004016       0.00000344        0        0       -1       58       26
Fe      -0.06467926      19.96670725     118.92132254      -0.00014006      -0.00004658      -0.00000961        0        0       -1       58       26
Fe       1.35034360      21.96343925     118.78963449      -0.00014002      -0.00004604      -0.00000539        0        0       -1       58       26
Fe       1.37459343       0.92748043     104.09150258      -0.00010833      -0.00000053      -0.00000303        0        0       -1       58       26
Fe      -0.04541458       1.06095532     106.10072083      -0.00011663      -0.00000643       0.00000017        0        0       -1       58       26
Fe       1.37496576       3.05465873     105.97159192      -0.00011565      -0.00000554       0.00000208        0        0       -1       58       26
Fe      -0.04570062       3.18892239     107.97752777      -0.00012286      -0.00001213      -0.00000430        0        0       -1       58       26
Fe       1.37145409       5.18469115     107.85569882      -0.00012223      -0.00001137      -0.00000538        0        0       -1       58       26
Fe      -0.04859711       5.31895726     109.85724682      -0.00012803      -0.00001740       0.00000286        0        0       -1       58       26
Fe       1.36654345       7.31640006     109.73538275      -0.00012785      -0.00001717       0.00000471        0        0       -1       58       26
Fe      -0.05236603       7.45023942     111.73340566      -0.00013249      -0.00002400      -0.00000457        0        0       -1       58       26
Fe       1.36180293       9.44846445     111.60684910      -0.00013251      -0.00002272      -0.00000549        0        0       -1       58       26
Fe      -0.05599964       9.58167888     113.60319212      -0.00013603      -0.00002939       0.00000286        0        0       -1       58       26
Fe       1.35790020      11.57979062     113.47070183      -0.00013618      -0.00002901       0.00000246        0        0       -1       58       26
Fe      -0.05909741      11.71257979     115.46717432      -0.00013847      -0.00003589      -0.00000551        0        0       -1       58       26
Fe       1.35490488      13.71018045     115.33079911      -0.00013870      -0.00003545      -0.00000661        0        0       -1       58       26
Fe      -0.06166038      13.84281492     117.32822937      -0.00013986      -0.00004051       0.00000850        0        0       -1       58       26
Fe       1.35258142      15.84000814     117.19131734      -0.00014009      -0.00004042       0.00000812        0        0       -1       58       26
Fe      -0.06388793      15.97270324     119.18951492      -0.00013969      -0.00004722      -0.00001590        0        0       -1       58       26
Fe       1.35060319      17.96979392     119.05442331      -0.00013988      -0.00004679      -0.00001294        0        0       -1       58       26
Fe       1.36573005       1.19442785     108.10737323      -0.00012357      -0.00001263      -0.00000354        0        0       -1       58       26
Fe      -0.05237962       1.32785289     110.11224447      -0.00012913      -0.00001877       0.00000035        0        0       -1       58       26
Fe       1.36499939       3.32291202     109.98182333      -0.00012858      -0.00001834       0.00000151        0        0       -1       58       26
Fe      -0.05337103       3.45671351     111.98492664      -0.00013298      -0.00002504      -0.00000348        0        0       -1       58       26
Fe       1.36256352       5.45294982     111.85824292      -0.00013274      -0.00002425      -0.00000439        0        0       -1       58       26
Fe      -0.05546980       5.58669302     113.85887157      -0.00013583      -0.00003057       0.00000229        0        0       -1       58       26
Fe       1.35957574       7.58383825     113.73178061      -0.00013589      -0.00003004       0.00000304        0        0       -1       58       26
Fe      -0.05792440       7.71725886     115.73044610      -0.00013802      -0.00003698      -0.00000460        0        0       -1       58       26
Fe       1.35667272       9.71480791     115.60033110      -0.00013822      -0.00003647      -0.00000511        0        0       -1       58       26
Fe      16.91965003       9.84786228     117.59807446      -0.00013928      -0.00004129       0.00000622       -1        0       -1       58       26
Fe       1.35407452      11.84536467     117.46429962      -0.00013959      -0.00004080       0.00000758        0        0       -1       58       26
Fe      -0.06265343      11.97810727     119.46190048      -0.00013909      -0.00004832      -0.00001367        0        0       -1       58       26
Fe       1.35173273      13.97544544     119.32584330      -0.00013943      -0.00004791      -0.00001600        0        0       -1       58       26
Fe       1.36001897       1.46124515     112.11584200      -0.00013337      -0.00002536      -0.00000258        0        0       -1       58       26
Fe      -0.05724106       1.59458153     114.11852541      -0.00013634      -0.00003176      -0.00000028        0        0       -1       58       26
Fe       1.35888217       3.59034565     113.98716323      -0.00013601      -0.00003124       0.00000089        0        0       -1       58       26
Fe      -0.05844508       3.72382071     115.98877381      -0.00013793      -0.00003770      -0.00000208        0        0       -1       58       26
Fe       1.35703425       5.72023911     115.85924180      -0.00013793      -0.00003745      -0.00000316        0        0       -1       58       26
Fe      -0.06009361       5.85364228     117.85945060      -0.00013863      -0.00004278       0.00000258        0        0       -1       58       26
Fe       1.35494973       7.85055535     117.72937748      -0.00013889      -0.00004199       0.00000432        0        0       -1       58       26
Fe      -0.06190516       7.98372887     119.72856770      -0.00013838      -0.00004824      -0.00000572        0        0       -1       58       26
Fe       1.35283665       9.98082706     119.59629653      -0.00013872      -0.00004836      -0.00000934        0        0       -1       58       26
Fe       1.35572750       1.72784703     116.12054799      -0.00013813      -0.00003813      -0.00000133        0        0       -1       58       26
Fe      -0.06114641       1.86103930     118.12208392      -0.00013874      -0.00004400      -0.00000044        0        0       -1       58       26
Fe       1.35451921       3.85716802     117.98992954      -0.00013860      -0.00004339       0.00000072        0        0       -1       58       26
Fe      -0.06229530       3.99039713     119.99074735      -0.00013811      -0.00004883      -0.00000125        0        0       -1       58       26
Fe       1.35305316       5.98691222     119.85958028      -0.00013815      -0.00004844      -0.00000285        0        0       -1       58       26
Fe       1.35209990       1.99414872     120.12324459      -0.00013816      -0.00004932      -0.00000050        0        0       -1       58       26
Fe       0.21771284       6.15703319      91.76281265      -0.00004210       0.00002327      -0.00010750        0        0       -1       58       26
Fe       1.63401508       8.15563169      91.74832226      -0.00007945       0.00001901      -0.00030648        0        0       -1       58       26
Fe       0.13738065       8.23322113      93.73022035      -0.00001397       0.00007747       0.00030412        0        0       -1       58       26
Fe       1.52758486      10.22728467      93.68402483      -0.00000170      -0.00005819       0.00079556        0        0       -1       57       26
Fe       0.05153106      10.38261811      95.63538310      -0.00009650       0.00002690      -0.00057474        0        0       -1       58       26
Fe       1.41393224      12.41047494      95.49339472      -0.00013816      -0.00008912      -0.00082780        0        0       -1       57       26
Fe      -0.02445848      12.53478863      97.43306664      -0.00005307       0.00002470       0.00046119        0        0       -1       58       26
Fe       1.34039169      14.52073747      97.15847931      -0.00008335       0.00008467       0.00015900        0        0       -1       58       26
Fe      -0.06718382      14.65175504      99.17834064      -0.00008434       0.00000564      -0.00013126        0        0       -1       58       26
Fe       1.32022807      16.63807409      99.00594454      -0.00008600       0.00000251      -0.00004974        0        0       -1       58       26
Fe      -0.08098161      16.77261100     101.02524041      -0.00009851       0.00000930       0.00002138        0        0       -1       58       26
Fe       1.32076521      18.76380733     100.89320730      -0.00009715       0.00001156       0.00000038        0        0       -1       58       26
Fe      -0.08085475      18.89892243     102.90340235      -0.00010612       0.00000287      -0.00001486        0        0       -1       58       26
Fe       1.33024324      20.89431000     102.78454359      -0.00010525       0.00000231      -0.00000773        0        0       -1       58       26
Fe      -0.07476894      21.02894947     104.78629621      -0.00011362      -0.00000330      -0.00000503        0        0       -1       58       26
Fe       1.34159565      23.02685901     104.66498356      -0.00011285      -0.00000191      -0.00000447        0        0       -1       58       26
Fe      -0.06753328      23.16047054     106.66182070      -0.00012037      -0.00000746      -0.00000233        0        0       -1       58       26
Fe       1.35099412      25.15862664     106.53065437      -0.00011945      -0.00000801      -0.00000144        0        0       -1       58       26
Fe      -0.06175770      25.29136729     108.52744479      -0.00012583      -0.00001433      -0.00000373        0        0       -1       58       26
Fe       1.35695591      27.28814715     108.38834776      -0.00012501      -0.00001337      -0.00000319        0        0       -1       58       26
Fe      -0.05829655      27.42076908     110.38823663      -0.00013033      -0.00001957      -0.00000020        0        0       -1       58       26
Fe       1.35968560      29.41629790     110.24874137      -0.00012969      -0.00001940      -0.00000007        0        0       -1       58       26
Fe      -0.05697858      29.54927034     112.25111700      -0.00013389      -0.00002582      -0.00000166        0        0       -1       58       26
Fe       0.20542717      10.15591004      91.72976212      -0.00001832       0.00003902      -0.00090658        0        0       -1       56       26
Fe       1.56590435      12.16675463      91.70765152      -0.00135386       0.00019687      -0.00392246        0        0       -1       54       26
Fe       0.05458537      12.22392411      93.60901064       0.00021247       0.00014723       0.00171189        0        0       -1       56       26
Fe       1.25162241      14.24933839      93.02524416      -0.00014430       0.00039401       0.00019533        0        0       -1       58       26
Fe      -0.09157633      14.38338105      95.11757409      -0.00003863      -0.00005497      -0.00022267        0        0       -1       57       26
Fe       1.25868168      16.36032834      94.93200121      -0.00005604       0.00002042      -0.00007034        0        0       -1       59       26
Fe      -0.11708313      16.50126417      96.97646049      -0.00008279       0.00000484       0.00003616        0        0       -1       58       26
Fe       1.26785145      18.48860998      96.85902297      -0.00007557       0.00002966      -0.00000036        0        0       -1       58       26
Fe      -0.11499070      18.62735708      98.87882066      -0.00008661       0.00001887      -0.00002033        0        0       -1       58       26
Fe       1.29022794      20.62243714      98.77882364      -0.00008529       0.00001102      -0.00001335        0        0       -1       58       26
Fe      -0.10050965      20.75895127     100.78209555      -0.00009599       0.00000711      -0.00000333        0        0       -1       58       26
Fe       1.31657112      22.75867546     100.67646600      -0.00009464       0.00000991       0.00000225        0        0       -1       58       26
Fe      -0.08305160      22.89296164     102.66968299      -0.00010411       0.00000413      -0.00000639        0        0       -1       58       26
Fe       1.33935812      24.89372806     102.54448532      -0.00010300       0.00000331      -0.00000868        0        0       -1       58       26
Fe      -0.06829791      25.02604724     104.53598800      -0.00011192      -0.00000254      -0.00000225        0        0       -1       58       26
Fe       1.35492640      27.02404804     104.39141179      -0.00011084      -0.00000109      -0.00000121        0        0       -1       58       26
Fe      -0.05850737      27.15586456     106.38921492      -0.00011852      -0.00000705      -0.00000146        0        0       -1       58       26
Fe       1.36307018      29.15081341     106.24187485      -0.00011760      -0.00000718      -0.00000108        0        0       -1       58       26
Fe      -0.05363403      29.28345064     108.24574625      -0.00012428      -0.00001319      -0.00000313        0        0       -1       58       26
Fe      -0.41464864      14.20374617      90.76335832       0.00003685      -0.00110776      -0.00000254        0        0       -1       55       26
Fe       1.00440580      16.16559630      90.75394010      -0.00003545       0.00048520      -0.00000534        0        0       -1       59       26
Fe      -0.23793573      16.22731523      92.86190997      -0.00006009      -0.00001761       0.00005833        0        0       -1       59       26
Fe       1.13534696      18.22389028      92.79771955      -0.00004527       0.00000076      -0.00001834        0        0       -1       58       26
Fe      -0.19794596      18.34835639      94.83254152      -0.00006549       0.00002191      -0.00001581        0        0       -1       58       26
Fe       1.19872049      20.34549598      94.76941736      -0.00005979       0.00003354      -0.00001634        0        0       -1       58       26
Fe      -0.16154695      20.48409841      96.77471479      -0.00007473       0.00001770       0.00000001        0        0       -1       58       26