21132
Lattice="16.98 0.0 0.0 0.0 84.14194911 0.0 0.0 0.0 167.95660592" Properties=species:S:1:pos:R:3:force:R:3:map_shift:I:3:n_neighb:I:1:Z:I:1 virial="-362.50712508 -56.02337783 72.64619909 -56.02337783 -217.77595831 0.96636764 72.64619909 0.96636764 -605.88051731" cutoff=5.3 adsorbate_info=T nneightol=1.2 energy=-84696.56655303 pbc="T T T"
Fe       0.50065141      12.43149806     125.76446864       0.00021119       0.00081499       0.00199674        0        0       -1       56       26
Fe       0.29105851       2.40711994     127.63715527       0.00071032       0.00064464       0.00044736        0        0       -1       58       26
Fe       1.70982058       4.40965540     127.63814034       0.00194716       0.00005176       0.00199272        0        0       -1       58       26
Fe       0.21918925       4.42444429     129.64203280       0.00048600      -0.00074259       0.00071017        0        0       -1       58       26
Fe       1.63635646       6.42239447     129.63293989       0.00135185      -0.00006808       0.00032836        0        0       -1       58       26
Fe       0.14878839       6.47805821     131.62447977       0.00052341      -0.00043678       0.00173702        0        0       -1       58       26
Fe       1.55104500       8.47332050     131.60028424       0.00068455      -0.00170705       0.00020187        0        0       -1       58       26
Fe       0.07280205       8.57691731     133.57408537       0.00090452      -0.00052570       0.00049294        0        0       -1       58       26
Fe       1.45568702      10.58980212     133.51349520       0.00151289       0.00094851       0.00109789        0        0       -1       58       26
Fe      -0.00281494      10.69391572     135.46880002       0.00097403       0.00141504       0.00143076        0        0       -1       58       26
Fe       1.36778811      12.70880711     135.32430926       0.00067787       0.00238307      -0.00089716        0        0       -1       58       26
Fe      -0.06455207      12.79759345     137.29214843       0.00170981       0.00047339      -0.00031008        0        0       -1       58       26
Fe       1.31244648      14.78932044     137.08736991       0.00129699       0.00170112      -0.00076856        0        0       -1       58       26
Fe      -0.10231327      14.88270669     139.10417853       0.00169556       0.00029495      -0.00072911        0        0       -1       58       26
Fe       1.28709903      16.87197518     138.96137415       0.00175163      -0.00096951       0.00061936        0        0       -1       58       26
Fe      -0.12060819      16.96797744     140.98285549       0.00153356       0.00056857      -0.00004901        0        0       -1       58       26
Fe       1.27821490      18.95934483     140.87571727       0.00134362       0.00102010       0.00076175        0        0       -1       58       26
Fe      -0.12677466      19.05732590     142.89313497       0.00063563       0.00013572       0.00167682        0        0       -1       58       26
Fe       1.27892533      21.05152990     142.80562516      -0.00024306       0.00022552       0.00056892        0        0       -1       58       26
Fe      -0.12614146      21.14987927     144.81757053      -0.00016597      -0.00132744       0.00170392        0        0       -1       58       26
Fe       1.28408308      23.14657104     144.73938534       0.00060286      -0.00178897       0.00157812        0        0       -1       58       26
Fe      -0.12209778      23.24335823     146.74637014      -0.00027092      -0.00112388       0.00007982        0        0       -1       58       26
Fe       1.29153709      25.24209921     146.67075405      -0.00020703      -0.00158847       0.00028150        0        0       -1       58       26
Fe      -0.11653265      25.33790799     148.67333143      -0.00175533      -0.00052971       0.00052727        0        0       -1       58       26
Fe       1.29905794      27.33774848     148.59625947      -0.00116849      -0.00001086      -0.00135440        0        0       -1       58       26
Fe      -0.11158226      27.43361533     150.59582033      -0.00109484      -0.00127368      -0.00125197        0        0       -1       58       26
Fe       1.30485741      29.43407799     150.51329871      -0.00038726      -0.00047015      -0.00249149        0        0       -1       58       26
Fe      -0.10784228      29.52867578     152.51111024      -0.00079768      -0.00064358      -0.00304326        0        0       -1       58       26
Fe       1.30884289      31.52926559     152.42044236      -0.00033723      -0.00028882      -0.00072637        0        0       -1       58       26
Fe      -0.10554489      31.62308207     154.41808706       0.00047543       0.00048281      -0.00015988        0        0       -1       58       26
Fe       1.31115855      33.62340768     154.32221781      -0.00034028       0.00049429       0.00059319        0        0       -1       58       26
Fe      -0.10421419      33.71769140     156.32105670      -0.00025331       0.00011810       0.00010472        0        0       -1       58       26
Fe       1.31205757      35.71731438     156.22271205      -0.00004351      -0.00012085       0.00076446        0        0       -1       58       26
Fe      -0.10406511      35.81130515     158.22313526       0.00077305      -0.00069747       0.00074650        0        0       -1       58       26
Fe       1.31204445      37.81027842     158.12469327       0.00091664      -0.00140606       0.00093146        0        0       -1       58       26
Fe      -0.10401060      37.90306781     160.12629402      -0.00013165      -0.00063126       0.00066224        0        0       -1       58       26
Fe       1.31203803      39.90180634     160.02884241       0.00020754      -0.00112404      -0.00066483        0        0       -1       58       26
Fe      -0.10416166      39.99415282     162.03127280       0.00014733      -0.00058036       0.00072390        0        0       -1       58       26
Fe       1.31188762      41.99248161     161.93453031       0.00037320      -0.00084136       0.00156037        0        0       -1       58       26
Fe      -0.10422164      42.08446977     163.93763338       0.00027529       0.00122683       0.00110197        0       -1       -1       58       26
Fe       1.70334790       0.40172978     127.63607955       0.00073145       0.00070725       0.00001120        0        0       -1       58       26
Fe       0.19588234       0.42258246     129.66778761       0.00038545      -0.00056539      -0.00064677        0        0       -1       58       26
Fe       1.62652554       2.42449949     129.65286047      -0.00029147      -0.00088427       0.00021855        0        0       -1       58       26
Fe       0.14097499       2.48514953     131.66795188       0.00131219      -0.00050781      -0.00033946        0        0       -1       58       26
Fe       1.56475973       4.48188269     131.64538214       0.00139223      -0.00086335       0.00105375        0        0       -1       58       26
Fe       0.09148272       4.57095142     133.64664590       0.00105413      -0.00171127      -0.00034926        0        0       -1       58       26
Fe       1.50338528       6.57175266     133.61366005       0.00099320      -0.00113863      -0.00040161        0        0       -1       58       26
Fe       0.04074646       6.67241353     135.60123405      -0.00005001      -0.00000400       0.00023994        0        0       -1       58       26
Fe       1.44050540       8.68033006     135.54767498       0.00019836      -0.00063653       0.00092756        0        0       -1       58       26
Fe      -0.00948587       8.77898604     137.52486710       0.00145174      -0.00033655      -0.00064292        0        0       -1       58       26
Fe       1.38283600      10.78936667     137.43490426       0.00060406       0.00029516      -0.00056949        0        0       -1       58       26
Fe      -0.05253147      10.88344811     139.40988739       0.00167716       0.00075152      -0.00096584        0        0       -1       58       26
Fe       1.33909515      12.88807312     139.27403301       0.00172594       0.00094853      -0.00066690        0        0       -1       58       26
Fe      -0.08348476      12.98024051     141.26355684       0.00134756       0.00033032      -0.00057892        0        0       -1       58       26
Fe       1.31282087      14.97617397     141.11556654       0.00104766       0.00107764      -0.00126739        0        0       -1       58       26
Fe      -0.10181248      15.07060497     143.12370046       0.00025391      -0.00000663      -0.00082911        0        0       -1       58       26
Fe       1.30004070      17.06424817     142.99888512       0.00013211       0.00037801       0.00132207        0        0       -1       58       26
Fe      -0.11064854      17.16020245     145.01125712      -0.00084205      -0.00156889       0.00157017        0        0       -1       58       26
Fe       1.29584366      19.15472066     144.90715771      -0.00100980      -0.00176804       0.00127331        0        0       -1       58       26
Fe      -0.11356942      19.24999903     146.91855840      -0.00097263      -0.00014514       0.00048108        0        0       -1       58       26
Fe       1.29647195      21.24609433     146.82767424      -0.00158628      -0.00035353       0.00035706        0        0       -1       58       26
Fe      -0.11317588      21.34181825     148.83595939      -0.00170372      -0.00027618       0.00178301        0        0       -1       58       26
Fe       1.29939679      23.33928572     148.75231130      -0.00184655      -0.00036237       0.00095237        0        0       -1       58       26
Fe      -0.11149280      23.43533047     150.75754660      -0.00047671      -0.00189951      -0.00105097        0        0       -1       58       26
Fe       1.30300106      25.43398934     150.67572698      -0.00144243      -0.00180943       0.00010357        0        0       -1       58       26
Fe      16.87089464      25.52878899     152.67785063      -0.00080349      -0.00091145       0.00021646       -1        0       -1       58       26
Fe       1.30621382      27.52839753     152.59568705      -0.00121262      -0.00102762      -0.00161593        0        0       -1       58       26
Fe      -0.10718939      27.62229308     154.59569125      -0.00047080       0.00132036      -0.00082072        0        0       -1       58       26
Fe       1.30831584      29.62251836     154.50938754       0.00024529       0.00136519      -0.00169013        0        0       -1       58       26
Fe      -0.10605529      29.71742290     156.50815784       0.00011487      -0.00013751      -0.00159841        0        0       -1       58       26
Fe       1.30973105      31.71767074     156.41648696      -0.00056129      -0.00005556      -0.00035920        0        0       -1       58       26
Fe      -0.10552808      31.81235892     158.41557988      -0.00009489      -0.00202327      -0.00104207        0        0       -1       58       26
Fe       1.31006939      33.81202062     158.32053929       0.00049247      -0.00162066      -0.00047520        0        0       -1       58       26
Fe      -0.10567972      33.90455482     160.32046447       0.00077200      -0.00001389      -0.00039975        0        0       -1       58       26
Fe       1.30995161      35.90392983     160.22398597       0.00112327       0.00062390      -0.00066888        0        0       -1       58       26
Fe      -0.10590262      35.99651389     162.22489627       0.00037656      -0.00007581       0.00084345        0        0       -1       58       26
Fe       1.30985905      37.99548636     162.12802074       0.00027526       0.00017281       0.00163875        0        0       -1       58       26
Fe      -0.10637227      38.08814136     164.13014731       0.00103463       0.00015528       0.00151199        0        0       -1       58       26
Fe       1.30963436      40.08642604     164.03390521       0.00039416       0.00007753       0.00142561        0        0       -1       58       26
Fe      -0.10652801      40.17920422     166.03687064       0.00056376       0.00104583       0.00027522        0        0       -1       58       26
Fe       1.30980152      42.17742289     165.94070099      -0.00056838       0.00084477       0.00041817        0       -1       -1       58       26
Fe       1.53602879       0.48904252     131.69714260       0.00072022      -0.00019567      -0.00006031        0        0       -1       58       26
Fe       0.06509115       0.57889189     133.72318507       0.00082359      -0.00010118      -0.00144108        0        0       -1       58       26
Fe       1.49882439       2.57322030     133.68095780       0.00044951      -0.00038848      -0.00159904        0        0       -1       58       26
Fe       0.03919190       2.67082057     135.69133259      -0.00019035      -0.00118373       0.00004268        0        0       -1       58       26
Fe       1.45983468       4.66955760     135.64606443       0.00074094      -0.00124604       0.00020461        0        0       -1       58       26
Fe       0.00838905       4.76875683     137.64496096       0.00045220       0.00000698       0.00026582        0        0       -1       58       26
Fe       1.41886882       6.77176401     137.58959769       0.00102381       0.00129937       0.00105068        0        0       -1       58       26
Fe      -0.02397376       6.87033789     139.57970877       0.00148312       0.00101205       0.00009371        0        0       -1       58       26
Fe       1.37996312       8.87609797     139.50615821       0.00213740      -0.00083694      -0.00050848        0        0       -1       58       26
Fe      -0.05346581       8.97259663     141.49137948       0.00177808      -0.00027484       0.00031029        0        0       -1       58       26
Fe       1.34833845      10.97765728     141.39187049       0.00178827       0.00132499      -0.00043399        0        0       -1       58       26
Fe      -0.07653230      11.07229338     143.37914078       0.00119422       0.00061075      -0.00031597        0        0       -1       58       26
Fe       1.32640888      13.07370448     143.25749233       0.00079661      -0.00053492      -0.00024019        0        0       -1       58       26
Fe      -0.09221472      13.16738036     145.25403207       0.00073222      -0.00053039      -0.00064916        0        0       -1       58       26
Fe       1.31355917      15.16496053     145.12977429      -0.00001790      -0.00083942      -0.00112804        0        0       -1       58       26
Fe      -0.10109155      15.25815235     147.13445744      -0.00050820       0.00087957       0.00097795        0        0       -1       58       26
Fe       1.30744178      17.25436223     147.02099466      -0.00062422       0.00031489       0.00191530        0        0       -1       58       26
Fe      -0.10522849      17.34877064     149.02888401      -0.00233189       0.00076164       0.00131199        0        0       -1       58       26
Fe       1.30542131      19.34513995     148.92764924      -0.00142074       0.00011541       0.00168605        0        0       -1       58       26
Fe      -0.10701134      19.44045113     150.93520128      -0.00211785      -0.00065786       0.00147129        0        0       -1       58       26
Fe       1.30518139      21.43754115     150.84305142       0.00011772      -0.00126114       0.00016802        0        0       -1       58       26
Fe      -0.10752932      21.53201973     152.84892819       0.00015022      -0.00078765       0.00082285        0        0       -1       58       26
Fe       1.30619942      23.53006819     152.76188847       0.00052991      -0.00154963      -0.00079180        0        0       -1       58       26
Fe      -0.10682248      23.62400211     154.76551503      -0.00033875      -0.00026585       0.00040459        0        0       -1       58       26
Fe       1.30777058      25.62275633     154.67971372      -0.00070745       0.00087907       0.00131928        0        0       -1       58       26
Fe      -0.10614409      25.71750157     156.68142115       0.00001336      -0.00026545       0.00042697        0        0       -1       58       26
Fe       1.30870671      27.71726710     156.59583344      -0.00015746      -0.00019556      -0.00162879        0        0       -1       58       26
Fe      -0.10587896      27.81231483     158.59591648       0.00021984      -0.00326037      -0.00128130        0        0       -1       58       26
Fe       1.30906602      29.81247741     158.50737067       0.00036990      -0.00381185      -0.00161599        0        0       -1       58       26
Fe      -0.10611330      29.90489317     160.50694479       0.00116754      -0.00170607      -0.00101476        0        0       -1       58       26
Fe       1.30897819      31.90485426     160.41515669       0.00055239      -0.00061969      -0.00148027        0        0       -1       58       26
Fe      -0.10651535      31.99712657     162.41482909       0.00063251      -0.00004666      -0.00088910        0        0       -1       58       26
Fe       1.30864854      33.99703808     162.32062152       0.00019128       0.00036495       0.00054626        0        0       -1       58       26
Fe      -0.10723634      34.09032264     164.32112855       0.00073358      -0.00064744       0.00027349        0        0       -1       58       26
Fe       1.30810827      36.08958485     164.22622281      -0.00013681      -0.00154134       0.00063359        0        0       -1       58       26
Fe      -0.10813220      36.18253388     166.22798652       0.00144471      -0.00009536       0.00056809        0        0       -1       58       26
Fe       1.30740984      38.18098207     166.13268560       0.00121510       0.00074961       0.00073897        0        0       -1       58       26
Fe       1.43890519       0.67599148     135.74496866      -0.00006703      -0.00105485      -0.00044554        0        0       -1       58       26
Fe      -0.00691209       0.77400706     137.76272289      -0.00025035       0.00003096       0.00076211        0        0       -1       58       26
Fe       1.41961106       2.76955107     137.69983538       0.00035512       0.00021370       0.00122394        0        0       -1       58       26
Fe      -0.02175560       2.86858377     139.70695820      -0.00044203       0.00022689       0.00076443        0        0       -1       58       26
Fe       1.39553529       4.86786151     139.64381374      -0.00060978      -0.00003517      -0.00004617        0        0       -1       58       26
Fe      -0.04091052       4.96646383     141.64286265       0.00048311      -0.00015218       0.00066678        0        0       -1       58       26
Fe       1.37023933       6.96837364     141.57151860       0.00124595      -0.00018360       0.00064216        0        0       -1       58       26
Fe      -0.06020538       7.06568789     143.56503249       0.00112605      -0.00067572       0.00064337        0        0       -1       58       26
Fe       1.34821398       9.06885479     143.48017620       0.00078785      -0.00069710      -0.00044818        0        0       -1       58       26
Fe      -0.07672367       9.16430800     145.47183613       0.00187795       0.00012124      -0.00061746        0        0       -1       58       26
Fe       1.33128707      11.16675224     145.37030645       0.00095632      -0.00106405      -0.00028226        0        0       -1       58       26
Fe      -0.08901058      11.26023321     147.36437013       0.00221146      -0.00005041      -0.00106126        0        0       -1       58       26
Fe       1.32022891      13.26024406     147.25223636       0.00025014       0.00133092      -0.00056184        0        0       -1       58       26
Fe      -0.09667431      13.35371799     149.25155144       0.00076844       0.00239037      -0.00156976        0        0       -1       58       26
Fe       1.31412624      15.35193302     149.13849222      -0.00115533       0.00076361       0.00044976        0        0       -1       58       26
Fe      -0.10111027      15.44655468     151.14201210       0.00074022      -0.00115568       0.00035059        0        0       -1       58       26
Fe       1.31093148      17.44369168     151.03539652      -0.00138135      -0.00069674       0.00054414        0        0       -1       58       26
Fe      -0.10360388      17.53749599     153.04084507       0.00147748       0.00020454       0.00109418        0        0       -1       58       26
Fe       1.30937559      19.53460802     152.94160528      -0.00022713      -0.00025606       0.00180509        0        0       -1       58       26
Fe      -0.10447660      19.62811249     154.94715004       0.00029943      -0.00029926       0.00069797        0        0       -1       58       26
Fe       1.30918006      21.62583453     154.85391104      -0.00029597      -0.00046308       0.00138617        0        0       -1       58       26
Fe      -0.10459278      21.71957643     156.85818915      -0.00064525       0.00034641      -0.00010582        0        0       -1       58       26
Fe       1.30940503      23.71827390     156.76859903       0.00005687      -0.00011152      -0.00006137        0        0       -1       58       26
Fe      -0.10477984      23.81264435     158.77107395       0.00030965      -0.00074381       0.00076205        0        0       -1       58       26
Fe       1.30955773      25.81229165     158.68279868       0.00006824      -0.00259543       0.00109435        0        0       -1       58       26
Fe      -0.10492429      25.90474292     160.68419005      -0.00063564       0.00019511      -0.00019933        0        0       -1       58       26
Fe       1.30926037      27.90469117     160.59606336       0.00088605      -0.00072439      -0.00022878        0        0       -1       58       26
Fe      -0.10561316      27.99656739     162.59638154      -0.00011458       0.00253133       0.00002447        0        0       -1       58       26
Fe       1.30880402      29.99680872     162.50673439      -0.00020238       0.00153564      -0.00126007        0        0       -1       58       26
Fe      -0.10664726      30.09042716     164.50657420      -0.00001739       0.00123672       0.00004997        0        0       -1       58       26
Fe       1.30779910      32.09056678     164.41459780       0.00122238      -0.00079187       0.00075495        0        0       -1       58       26
Fe      -0.10782073      32.18414704     166.41487148       0.00045007       0.00087320       0.00090865        0        0       -1       58       26
Fe       1.30683754      34.18356394     166.32199712       0.00100082       0.00009862       0.00098788        0        0       -1       58       26
Fe       1.38475351       0.87245193     139.77710610       0.00012828      -0.00049775       0.00122075        0        0       -1       58       26
Fe      -0.04799889       0.97063539     141.78873512      -0.00112906      -0.00040080       0.00238346        0        0       -1       58       26
Fe       1.37302934       2.96721417     141.71284551      -0.00104526       0.00006484       0.00150424        0        0       -1       58       26
Fe      -0.05772698       3.06490992     143.71793720      -0.00023667       0.00010858       0.00003241        0        0       -1       58       26
Fe       1.35787211       5.06415601     143.64227022       0.00054562       0.00050661      -0.00048799        0        0       -1       58       26
Fe      -0.06937596       5.16117852     145.64185333       0.00018619      -0.00043895       0.00022489        0        0       -1       58       26
Fe       1.34333671       7.16213910     145.56012585       0.00040076      -0.00065867       0.00093167        0        0       -1       58       26
Fe      -0.08017951       7.25752986     147.55671409      -0.00014183      -0.00024505      -0.00002290        0        0       -1       58       26
Fe       1.33113532       9.25880472     147.46589971       0.00105443       0.00139738      -0.00146617        0        0       -1       58       26
Fe      -0.08910609       9.35360303     149.46176651       0.00044133       0.00102446      -0.00253599        0        0       -1       58       26
Fe       1.32230382      11.35411599     149.36031502       0.00173961       0.00100569      -0.00081958        0        0       -1       58       26
Fe      -0.09514451      11.44885333     151.35756801      -0.00053550      -0.00068590       0.00054220        0        0       -1       58       26
Fe       1.31700985      13.44830676     151.25141810       0.00050932      -0.00026012      -0.00091565        0        0       -1       58       26
Fe      -0.09880567      13.54212723     153.25181656      -0.00087121      -0.00229349      -0.00122474        0        0       -1       58       26
Fe       1.31385347      15.54022284     153.14522230       0.00018239      -0.00097191      -0.00005026        0        0       -1       58       26
Fe      -0.10096960      15.63280509     155.14806664      -0.00122091       0.00024272       0.00056589        0        0       -1       58       26
Fe       1.31216510      17.63054231     155.04555449       0.00019212       0.00041261       0.00060047        0        0       -1       58       26
Fe      -0.10220831      17.72328013     157.04952555      -0.00071138       0.00071886       0.00040343        0        0       -1       58       26
Fe       1.31152566      19.72133755     156.95177557      -0.00038078       0.00048496       0.00000032        0        0       -1       58       26
Fe      -0.10279783      19.81498778     158.95551925      -0.00049344      -0.00009219       0.00029766        0        0       -1       58       26
Fe       1.31120533      21.81358971     158.86155537      -0.00052435      -0.00047452       0.00035284        0        0       -1       58       26
Fe      -0.10327078      21.90655863     160.86439474      -0.00048080      -0.00011184       0.00065563        0        0       -1       58       26
Fe       1.31087706      23.90536692     160.77336999      -0.00062134       0.00067556      -0.00041183        0        0       -1       58       26
Fe      -0.10380576      23.99763370     162.77540595      -0.00136321       0.00234969      -0.00008571        0        0       -1       58       26
Fe       1.31030249      25.99674068     162.68542424      -0.00104863       0.00361896       0.00034141        0        0       -1       58       26
Fe      -0.10493989      26.09076254     164.68650990      -0.00109917       0.00151593       0.00027448        0        0       -1       58       26
Fe       1.30911842      28.09046853     164.59679715      -0.00058733       0.00103008      -0.00020216        0        0       -1       58       26
Fe      -0.10660766      28.18506746     166.59730818       0.00045277       0.00015346       0.00041765        0        0       -1       58       26
Fe       1.30766251      30.18462596     166.50687017       0.00111253       0.00049149      -0.00024393        0        0       -1       58       26
Fe       1.35306077       1.06786255     143.79829888      -0.00047716      -0.00001427       0.00175031        0        0       -1       58       26
Fe      -0.07300907       1.16423779     145.80615843       0.00168246       0.00035972       0.00147845        0        0       -1       58       26
Fe       1.34508344       3.16187334     145.72204945       0.00078702      -0.00082607       0.00056742        0        0       -1       58       26
Fe      -0.07915253       3.25766329     147.72548471       0.00106027       0.00081794       0.00125014        0        0       -1       58       26
Fe       1.33629807       5.25697256     147.64177906       0.00089179       0.00057586       0.00027008        0        0       -1       58       26
Fe      -0.08564021       5.35310596     149.64199054       0.00017527      -0.00052703      -0.00012970        0        0       -1       58       26
Fe       1.32841832       7.35313839     149.55440543      -0.00065745      -0.00107611      -0.00118589        0        0       -1       58       26
Fe      -0.09171754       7.44830054     151.55282125       0.00155384      -0.00086287      -0.00035616        0        0       -1       58       26
Fe       1.32190405       9.44861256     151.45878468       0.00104066      -0.00039645      -0.00180680        0        0       -1       58       26
Fe      16.88409577       9.54273518     153.45670761       0.00122662      -0.00109252      -0.00133864       -1        0       -1       58       26
Fe       1.31793788      11.54280863     153.35594418       0.00023494      -0.00179088       0.00016888        0        0       -1       58       26
Fe      -0.09827111      11.63539433     155.35511848       0.00018829      -0.00049895       0.00049474        0        0       -1       58       26
Fe       1.31553947      13.63452832     155.25253106      -0.00009604      -0.00100473      -0.00095184        0        0       -1       58       26
Fe      -0.09982948      13.72642365     157.25338921      -0.00032809       0.00097953      -0.00038575        0        0       -1       58       26
Fe       1.31395547      15.72503588     157.15061585       0.00050114       0.00129212       0.00046013        0        0       -1       58       26
Fe      -0.10091892      15.81803145     159.15284771      -0.00005997       0.00038932      -0.00064128        0        0       -1       58       26
Fe       1.31316704      17.81664778     159.05285006      -0.00028978      -0.00062325       0.00003236        0        0       -1       58       26