18876
Lattice="16.98 0.0 0.0 0.0 79.44188568 0.0 0.0 0.0 158.84332955" Properties=species:S:1:pos:R:3:force:R:3:map_shift:I:3:n_neighb:I:1:Z:I:1 nneightol=1.2 virial="-77.07035341 0.02178664 -0.01689585 0.02178664 -231.03599528 -97.29400579 -0.01689585 -97.29400579 -328.21156294" energy=-75633.18731226 cutoff=5.3 pbc="T T T"
Fe      15.13482583      40.83359408       4.26482931       0.00009208       0.00001498       0.00001089       -1       -1        0       58       26
Fe       0.99262917       3.91749488     118.81658993      -0.00000965      -0.00001494      -0.00000628        0        0       -1       52       26
Fe      -0.42303507       5.54112350     119.93839823       0.00000018       0.00000478      -0.00001762        0        0       -1       55       26
Fe      -0.42301938       8.31159682     119.93329884       0.00000046       0.00000086       0.00000415        0        0       -1       58       26
Fe      -0.42300511      11.12381757     119.92862492       0.00000228      -0.00000600       0.00001220        0        0       -1       58       26
Fe      -0.42300317      13.95967995     119.92090760       0.00000143      -0.00000800      -0.00000992        0        0       -1       58       26
Fe      -0.42297459      16.81885318     119.90612717      -0.00000018      -0.00000445       0.00000029        0        0       -1       58       26
Fe      -0.42307591      19.67242570     119.87487561       0.00000140      -0.00000816      -0.00000257        0        0       -1       60       26
Fe       2.40742300      22.14520645     119.33587745      -0.00000549       0.00000035       0.00001073        0        0       -1       56       26
Fe       0.99219707      23.79500557     120.21408813      -0.00000207      -0.00000442       0.00000256        0        0       -1       52       26
Fe      13.71976862      79.24320027       2.75067980       0.00009301      -0.00001267      -0.00001800       -1       -1        0       58       26
Fe      -0.42346730      25.40076139     121.34634524       0.00000646      -0.00001386      -0.00001379        0        0       -1       55       26
Fe       0.99200877      26.74232634     119.98726498       0.00000062      -0.00000539      -0.00000221        0        0       -1       56       26
Fe      -0.42345527      28.17236285     121.35270227       0.00000626       0.00000072       0.00000983        0        0       -1       58       26
Fe       0.99198478      29.56565321     119.96104810       0.00000050      -0.00000512      -0.00000138        0        0       -1       58       26
Fe      -0.42347064      30.98384356     121.35896460       0.00000633      -0.00000445       0.00000010        0        0       -1       58       26
Fe       0.99196548      32.39722646     119.95122044       0.00000068      -0.00000773      -0.00000334        0        0       -1       58       26
Fe      -0.42349959      33.81627719     121.36716952       0.00000702      -0.00000087       0.00000070        0        0       -1       58       26
Fe       0.99193611      35.25080324     119.94531110       0.00000086      -0.00000028       0.00000659        0        0       -1       58       26
Fe      -0.42357693      36.66174222     121.39024866       0.00000890      -0.00001201      -0.00000830        0        0       -1       58       26
Fe       0.99184115      38.13690468     119.95553574       0.00000365      -0.00000645      -0.00000584        0        0       -1       58       26
Fe      -0.42366413      39.48784777     121.48733515       0.00001130      -0.00000477      -0.00000072        0        0       -1       60       26
Fe       0.99181137       1.39219235     120.13695361       0.00000445      -0.00000326       0.00000344        0        0       -1       57       26
Fe      -0.42398376       2.39904935     122.05719512       0.00001415       0.00000784      -0.00001155        0        0       -1       56       26
Fe       0.99129699       3.99871714     121.11752010       0.00001005      -0.00003165       0.00000687        0        0       -1       53       26
Fe      -0.42399830       5.35823547     122.52582600       0.00001349       0.00002671       0.00002263        0        0       -1       56       26
Fe       0.99150965       6.89786388     121.30397217       0.00000611       0.00001890       0.00002496        0        0       -1       56       26
Fe      -0.42391900       8.25475960     122.69116376       0.00001251      -0.00004069      -0.00002477        0        0       -1       58       26
Fe       0.99153923       9.71111082     121.32712802       0.00000625      -0.00000074      -0.00001215        0        0       -1       58       26
Fe      -0.42390860      11.09390362     122.73309868       0.00001186      -0.00000066      -0.00000508        0        0       -1       58       26
Fe       0.99153957      12.54046599     121.33609661       0.00000700      -0.00001989      -0.00000794        0        0       -1       58       26
Fe      -0.42392743      13.93545319     122.75780085       0.00001324       0.00001093       0.00001604        0        0       -1       58       26
Fe       0.99152535      15.39274507     121.34232017       0.00000724       0.00000329       0.00000901        0        0       -1       58       26
Fe      -0.42398806      16.78344121     122.79284500       0.00001388      -0.00001321      -0.00000905        0        0       -1       58       26
Fe       0.99146504      18.27569754     121.36324841       0.00000693      -0.00000572      -0.00000434        0        0       -1       58       26
Fe      -0.42407104      19.60990617     122.89900913       0.00001392      -0.00000451      -0.00000259        0        0       -1       60       26
Fe       0.99146133      21.25063498     121.54421870       0.00000705      -0.00000438       0.00000226        0        0       -1       57       26
Fe      -0.42441077      22.23481511     123.46244837       0.00001880       0.00000117      -0.00000682        0        0       -1       56       26
Fe       0.99087168      23.83995547     122.51656008       0.00001465      -0.00001781      -0.00000240        0        0       -1       53       26
Fe      -0.42441797      25.18673385     123.93327150       0.00001815       0.00001197       0.00001856        0        0       -1       56       26
Fe       0.99108063      26.74105597     122.71801276       0.00001182       0.00002472       0.00002202        0        0       -1       56       26
Fe      -0.42434348      28.07975835     124.11393125       0.00001702      -0.00002812      -0.00002766        0        0       -1       58       26
Fe       0.99109207      29.55166132     122.75348151       0.00001183      -0.00001386      -0.00000809        0        0       -1       58       26
Fe      -0.42434361      30.90751031     124.17314935       0.00001748       0.00000325       0.00000286        0        0       -1       58       26
Fe       0.99107767      32.37018317     122.77832669       0.00001222      -0.00000614      -0.00000170        0        0       -1       58       26
Fe      -0.42439560      33.71946656     124.22699550       0.00001856       0.00000015       0.00000577        0        0       -1       58       26
Fe       0.99100540      35.19093973     122.81545265       0.00001428      -0.00000469      -0.00000466        0        0       -1       58       26
Fe      16.55553179      36.50001785     124.31972253       0.00002071      -0.00000114      -0.00000058       -1        0       -1       58       26
Fe       0.99091441      37.98199522     122.91034239       0.00001637       0.00000031       0.00000456        0        0       -1       58       26
Fe      -0.42456572      39.19419825     124.53981399       0.00002258      -0.00000594      -0.00000708        0        0       -1       58       26
Fe       0.99076383       0.90954425     123.22607405       0.00001807      -0.00001129      -0.00000090        0        0       -1       56       26
Fe      -0.42473351       2.23768671     124.83649116       0.00002500       0.00000161      -0.00000515        0        0       -1       58       26
Fe       0.99059176       3.76295862     123.64667297       0.00001954      -0.00000133       0.00000841        0        0       -1       57       26
Fe      -0.42477974       5.13475069     125.15055260       0.00002549      -0.00001593      -0.00000665        0        0       -1       59       26
Fe       0.99063102       6.70997666     123.95328426       0.00001911      -0.00002500      -0.00003167        0        0       -1       58       26
Fe      -0.42477359       8.06389004     125.38594111       0.00002484       0.00002224       0.00002270        0        0       -1       58       26
Fe       0.99065094       9.60830005     124.09577239       0.00001871       0.00001868       0.00002487        0        0       -1       58       26
Fe      -0.42477726      10.95283856     125.52013379       0.00002504      -0.00000919      -0.00000877        0        0       -1       58       26
Fe       0.99063969      12.45867199     124.15531572       0.00001910       0.00000510       0.00001130        0        0       -1       58       26
Fe      -0.42482022      13.79307425     125.60704489       0.00002492      -0.00002088      -0.00002005        0        0       -1       58       26
Fe       0.99059130      15.29137720     124.21007569       0.00001904      -0.00001816      -0.00002203        0        0       -1       58       26
Fe      -0.42487793      16.58669500     125.71659389       0.00002423       0.00001075       0.00001267        0        0       -1       58       26
Fe       0.99051057      18.08702569     124.31598162       0.00001921      -0.00000020       0.00000259        0        0       -1       58       26
Fe      -0.42498039      19.28786439     125.94435988       0.00002525      -0.00000142       0.00000158        0        0       -1       58       26
Fe       0.99034591      20.73829119     124.63580649       0.00002157      -0.00000530       0.00000223        0        0       -1       56       26
Fe      -0.42513514      22.05049253     126.24667685       0.00002722      -0.00001279      -0.00000879        0        0       -1       58       26
Fe       0.99018281      23.58312680     125.05398978       0.00002351       0.00000082      -0.00000358        0        0       -1       57       26
Fe      -0.42517612      24.93856494     126.56671945       0.00002866       0.00000360       0.00000332        0        0       -1       59       26
Fe       0.99021336      26.52217721     125.37127489       0.00002319      -0.00002319      -0.00001657        0        0       -1       58       26
Fe      -0.42517724      27.85645778     126.81760858       0.00002851       0.00000875       0.00000739        0        0       -1       58       26
Fe       0.99023526      29.41024646     125.53248488       0.00002324       0.00001430       0.00001770        0        0       -1       58       26
Fe      -0.42518376      30.72673962     126.97738604       0.00002829      -0.00000615      -0.00000336        0        0       -1       58       26
Fe       0.99020749      32.23659648     125.61933519       0.00002337       0.00000162       0.00000296        0        0       -1       58       26
Fe      -0.42522448      33.53456658     127.09999513       0.00002873      -0.00001015      -0.00001344        0        0       -1       58       26
Fe       0.99015293      35.02234256     125.71852458       0.00002447      -0.00000833      -0.00000871        0        0       -1       58       26
Fe      -0.42528705      36.28824028     127.25365995       0.00003056       0.00000246       0.00000649        0        0       -1       58       26
Fe       0.99007547      37.74816801     125.88992980       0.00002659      -0.00000204      -0.00000625        0        0       -1       58       26
Fe      -0.42537396      39.03205848     127.44985542       0.00003309      -0.00000022      -0.00000134        0        0       -1       58       26
Fe       0.98995447       0.76862143     126.12332593       0.00002937      -0.00000706       0.00000059        0        0       -1       58       26
Fe      -0.42547846       2.10591471     127.66495459       0.00003474      -0.00000029      -0.00000012        0        0       -1       58       26
Fe       0.98985253       3.59967658     126.38037482       0.00003096       0.00000109      -0.00000220        0        0       -1       59       26
Fe      -0.42554204       4.96198653     127.89157302       0.00003526      -0.00001588      -0.00000883        0        0       -1       58       26
Fe       0.98982816       6.50042442     126.63221489       0.00003036       0.00000165       0.00000293        0        0       -1       58       26
Fe      -0.42556002       7.85326139     128.11007747       0.00003539       0.00001036       0.00000116        0        0       -1       58       26
Fe       0.98981989       9.40888625     126.83153827       0.00002998      -0.00001495      -0.00000716        0        0       -1       58       26
Fe      -0.42559427      10.73557962     128.29811233       0.00003488      -0.00001365      -0.00000474        0        0       -1       58       26
Fe       0.98978765      12.27633887     126.97315728       0.00002973      -0.00000629      -0.00001303        0        0       -1       58       26
Fe      -0.42563267      13.57234719     128.46069408       0.00003410       0.00001877       0.00001779        0        0       -1       58       26
Fe       0.98974548      15.08658745     127.10121291       0.00002952       0.00001138       0.00002530        0        0       -1       58       26
Fe      -0.42568031      16.34657445     128.63845606       0.00003471      -0.00001844      -0.00001417        0        0       -1       58       26
Fe       0.98967739      17.82557996     127.28699099       0.00002992      -0.00000402      -0.00000967        0        0       -1       58       26
Fe      -0.42576245      19.09939718     128.84952680       0.00003553      -0.00000547      -0.00001267        0        0       -1       58       26
Fe       0.98955930      20.57036124     127.53025746       0.00003109      -0.00001428      -0.00001475        0        0       -1       58       26
Fe      -0.42585077      21.89399770     129.07680475       0.00003629       0.00001360       0.00002505        0        0       -1       58       26
Fe       0.98946594      23.39637047     127.79565884       0.00003279       0.00001359       0.00001237        0        0       -1       59       26
Fe      -0.42591115      24.74247530     129.31593277       0.00003739      -0.00002007      -0.00002949        0        0       -1       58       26
Fe       0.98944137      26.28645392     128.05990348       0.00003358      -0.00001979      -0.00001098        0        0       -1       58       26
Fe      -0.42594344      27.62079214     129.55203645       0.00003839       0.00001693       0.00001901        0        0       -1       58       26
Fe       0.98941886      29.17920415     128.28075860       0.00003383       0.00000562       0.00000263        0        0       -1       58       26
Fe      -0.42597492      30.48647943     129.76459416       0.00003927      -0.00001616      -0.00001617        0        0       -1       58       26
Fe       0.98939656      32.02405395     128.45232983       0.00003402      -0.00000852      -0.00001295        0        0       -1       58       26
Fe      -0.42600885      33.30772469     129.95270222       0.00003983       0.00001441       0.00001518        0        0       -1       58       26
Fe       0.98935135      34.80978771     128.61261094       0.00003500       0.00000962       0.00001375        0        0       -1       58       26
Fe      -0.42606463      36.09166356     130.13327427       0.00004149      -0.00000895      -0.00001064        0        0       -1       58       26
Fe       0.98928408      37.56907694     128.79152636       0.00003723      -0.00000547      -0.00000307        0        0       -1       58       26
Fe      -0.42613568      38.87522442     130.31452204       0.00004306      -0.00000106      -0.00000564        0        0       -1       58       26
Fe       0.98919434       0.62962280     128.98277116       0.00003877      -0.00000467      -0.00000252        0        0       -1       58       26
Fe      -0.42621142       1.96135325     130.49905727       0.00004455      -0.00000780       0.00000085        0        0       -1       58       26
Fe       0.98911770       3.45320560     129.18329930       0.00003946      -0.00000623      -0.00001538        0        0       -1       58       26
Fe      -0.42626101       4.79647247     130.69189231       0.00004557       0.00001547       0.00000849        0        0       -1       58       26
Fe       0.98908303       6.31400603     129.39184676       0.00004030       0.00000957       0.00001896        0        0       -1       58       26
Fe      -0.42631220       7.65057738     130.89347203       0.00004565      -0.00002978      -0.00002428        0        0       -1       58       26
Fe       0.98904294       9.18760109     129.59683151       0.00004037      -0.00001530      -0.00002232        0        0       -1       58       26
Fe      -0.42634307      10.50275113     131.09805922       0.00004570       0.00002562       0.00002155        0        0       -1       58       26
Fe       0.98900384      12.04065702     129.78960742       0.00003992       0.00001193       0.00002255        0        0       -1       58       26
Fe      -0.42638982      13.32981640     131.30286411       0.00004497      -0.00002564      -0.00002120        0        0       -1       58       26
Fe       0.98896057      14.84724403     129.97969090       0.00003967      -0.00001534      -0.00002828        0        0       -1       58       26
Fe      -0.42643494      16.12752764     131.50750694       0.00004393       0.00001339       0.00000885        0        0       -1       58       26
Fe       0.98890256      17.62099893     130.18020438       0.00003958      -0.00000244       0.00000669        0        0       -1       58       26
Fe      -0.42649574      18.91960635     131.70926725       0.00004429       0.00000154       0.00000994        0        0       -1       58       26
Fe       0.98883148      20.40705128     130.38762383       0.00004047       0.00001801       0.00001221        0        0       -1       58       26
Fe      -0.42656483      21.72764714     131.91104458       0.00004536      -0.00001806      -0.00002854        0        0       -1       58       26
Fe       0.98875988      23.22738501     130.60273127       0.00004163      -0.00003357      -0.00002786        0        0       -1       58       26
Fe      -0.42661600      24.55774118     132.12038339       0.00004651       0.00002567       0.00002845        0        0       -1       58       26
Fe       0.98871104      26.07887823     130.82737464       0.00004253       0.00002748       0.00002528        0        0       -1       58       26
Fe      -0.42666155      27.40332500     132.33925725       0.00004766      -0.00002825      -0.00002933        0        0       -1       58       26
Fe       0.98867149      28.94000656     131.05220774       0.00004365      -0.00002236      -0.00002664        0        0       -1       58       26
Fe      -0.42670324      30.24836889     132.56099715       0.00004895       0.00002047       0.00001849        0        0       -1       58       26
Fe       0.98864001      31.78271560     131.26576292       0.00004471       0.00001490       0.00001838        0        0       -1       58       26
Fe      -0.42674421      33.07865994     132.77463575       0.00005067      -0.00001382      -0.00001430        0        0       -1       58       26
Fe       0.98859463      34.59451693     131.46302275       0.00004613      -0.00001079      -0.00001381        0        0       -1       58       26
Fe      -0.42679486      35.89309518     132.97186396       0.00005156       0.00000282       0.00000320        0        0       -1       58       26
Fe       0.98853743      37.39118686     131.64737322       0.00004725      -0.00000171       0.00000135        0        0       -1       58       26
Fe      -0.42685192      38.70250997     133.15483632       0.00005263       0.00000396       0.00000767        0        0       -1       58       26
Fe       0.98846855       0.47369489     131.82628229       0.00004898       0.00000642       0.00000250        0        0       -1       58       26
Fe      -0.42691303       1.79635154     133.33333723       0.00005446      -0.00000760      -0.00001187        0        0       -1       58       26
Fe       0.98840613       3.29365391     132.00823446       0.00005092      -0.00000262       0.00000197        0        0       -1       58       26
Fe      -0.42696720       4.62019087     133.51704576       0.00005525      -0.00000724      -0.00000804        0        0       -1       58       26
Fe       0.98835504       6.12939961     132.19988053       0.00005065      -0.00001744      -0.00002384        0        0       -1       58       26
Fe      -0.42701484       7.45067833     133.71213158       0.00005483       0.00001724       0.00001924        0        0       -1       58       26
Fe       0.98831083       8.97129980     132.40241954       0.00004991       0.00002266       0.00002992        0        0       -1       58       26
Fe      -0.42705594      10.28039765     133.91933013       0.00005408      -0.00002443      -0.00002925        0        0       -1       58       26
Fe       0.98827234      11.80416139     132.61269811       0.00004965      -0.00002162      -0.00002746        0        0       -1       58       26
Fe      -0.42709482      13.10257296     134.13331814       0.00005345       0.00001166       0.00001536        0        0       -1       58       26
Fe       0.98823229      14.61917230     132.82453069       0.00004926       0.00001145       0.00001601        0        0       -1       58       26
Fe      -0.42714006      15.91759758     134.34433085       0.00005381       0.00000155      -0.00000485        0        0       -1       58       26
Fe       0.98817971      17.42365475     133.03001984       0.00004885       0.00000139      -0.00000083        0        0       -1       58       26
Fe      -0.42719006      18.73055629     134.54660236       0.00005371      -0.00001462      -0.00001423        0        0       -1       58       26
Fe       0.98812350      20.23110983     133.22866972       0.00004901      -0.00001470      -0.00001893        0        0       -1       58       26
Fe      -0.42724298      21.54665536     134.74384271       0.00005395       0.00002061       0.00001496        0        0       -1       58       26
Fe       0.98806663      23.04987733     133.42833229       0.00005022       0.00001952       0.00002283        0        0       -1       58       26
Fe      16.55270755      24.36902419     134.94450442       0.00005492      -0.00001671      -0.00001719       -1        0       -1       58       26
Fe       0.98801957      25.88093873     133.63666731       0.00005158      -0.00002148      -0.00002772        0        0       -1       58       26
Fe      -0.42733520      27.19767804     135.15406152       0.00005667       0.00001232       0.00001150        0        0       -1       58       26
Fe       0.98797419      28.71844461     133.85429416       0.00005296       0.00001827       0.00001984        0        0       -1       58       26
Fe      -0.42737733      30.02970533     135.37064227       0.00005828      -0.00000802      -0.00001228        0        0       -1       58       26
Fe       0.98793375      31.55368115     134.07371738       0.00005457      -0.00001399      -0.00001405        0        0       -1       58       26
Fe      -0.42741827      32.86134910     135.58576713       0.00005952      -0.00000224       0.00000234        0        0       -1       58       26
Fe       0.98789023      34.38102420     134.28348686       0.00005587       0.00000421       0.00000202        0        0       -1       58       26
Fe      -0.42746123      35.68958818     135.79007656       0.00006085       0.00001031       0.00000402        0        0       -1       58       26
Fe       0.98783918      37.20098799     134.47725576       0.00005703       0.00000421       0.00000808        0        0       -1       58       26
Fe      -0.42751473      38.51323369     135.98120730       0.00006230      -0.00001550      -0.00001275        0        0       -1       58       26
Fe       0.98777985       0.29734028     134.65961203       0.00005817      -0.00000977      -0.00001493        0        0       -1       58       26
Fe      -0.42756904       1.61274279     136.16512375       0.00006257       0.00001358       0.00001112        0        0       -1       58       26
Fe       0.98772656       3.11654663     134.84061685       0.00005835       0.00000404       0.00000574        0        0       -1       58       26
Fe      -0.42761793       4.43212720     136.35077802       0.00006262      -0.00000528      -0.00000444        0        0       -1       58       26
Fe       0.98767630       5.93904692     135.02905705       0.00005893       0.00000643       0.00000646        0        0       -1       58       26
Fe      -0.42766348       7.25145148     136.54503767       0.00006337      -0.00000580      -0.00001412        0        0       -1       58       26
Fe       0.98763297       8.76292139     135.22951942       0.00005920      -0.00001953      -0.00002088        0        0       -1       58       26
Fe      -0.42770387      10.07101627     136.74969033       0.00006370       0.00000466       0.00001421        0        0       -1       58       26
Fe       0.98759444      11.58518657     135.44013901       0.00005844       0.00001813       0.00001181        0        0       -1       58       26
Fe      -0.42774295      12.89131522     136.96038195       0.00006284       0.00000650      -0.00000955        0        0       -1       58       26
Fe       0.98755252      14.40516480     135.65309367       0.00005783      -0.00000615       0.00000122        0        0       -1       58       26
Fe      -0.42778341      15.71257088     137.16998643       0.00006188      -0.00002001      -0.00000979        0        0       -1       58       26
Fe       0.98750792      17.22375273     135.86030547       0.00005811      -0.00000550      -0.00002084        0        0       -1       58       26
Fe      -0.42782637      18.53389814     137.37396033       0.00006208       0.00002961       0.00001511        0        0       -1       58       26
Fe       0.98745929      20.04208233     136.06025983       0.00005810       0.00001223       0.00002554        0        0       -1       58       26
Fe      -0.42787227      21.35454999     137.57351710       0.00006286      -0.00002126      -0.00001779        0        0       -1       58       26
Fe       0.98741125      22.86176482     136.25837511       0.00005853      -0.00000720      -0.00002002        0        0       -1       58       26
Fe      -0.42791674      24.17527051     137.77363944       0.00006355       0.00000626       0.00000259        0        0       -1       58       26
Fe       0.98736531      25.68451615     136.46138093       0.00006002       0.00000399       0.00000427        0        0       -1       58       26
Fe      -0.42795947      26.99797732     137.97856545       0.00006470       0.00000944       0.00000434        0        0       -1       58       26
Fe       0.98732554      28.51120453     136.67179305       0.00006182      -0.00000194       0.00000017        0        0       -1       58       26
Fe      -0.42799732      29.82433502     138.18831962       0.00006590      -0.00001674      -0.00001258        0        0       -1       58       26
Fe       0.98728573      31.34121288     136.88575052       0.00006300      -0.00000114      -0.00000998        0        0       -1       58       26
Fe      -0.42803520      32.65425270     138.39859613       0.00006727       0.00001982       0.00001117        0        0       -1       58       26
Fe       0.98724482      34.17237171     137.09557892       0.00006414       0.00000418       0.00001305        0        0       -1       58       26
Fe      16.55192372      35.48526405     138.60389072       0.00006876      -0.00002059      -0.00001603       -1        0       -1       58       26
Fe       0.98720006      37.00139401     137.29550772       0.00006564      -0.00000883      -0.00001967        0        0       -1       58       26
Fe      -0.42812207      38.31377149     138.80146393       0.00006946       0.00001730       0.00001480        0        0       -1       58       26
Fe       0.98714914       0.10512044     137.48608577       0.00006665       0.00001175       0.00001693        0        0       -1       58       26
Fe      -0.42816890       1.41658895     138.99334938       0.00007016      -0.00000866      -0.00001236        0        0       -1       58       26
Fe       0.98709958       2.92560715     137.67334017       0.00006717      -0.00000723      -0.00001087        0        0       -1       58       26
Fe      -0.42821310       4.23574514     139.18472992       0.00007090       0.00000323       0.00000037        0        0       -1       58       26
Fe       0.98705477       5.74342159     137.86442055       0.00006751      -0.00000179      -0.00000226        0        0       -1       58       26
Fe      -0.42825441       7.05237428     139.38042680       0.00007081       0.00000115       0.00000537        0        0       -1       58       26
Fe       0.98701316       8.56056025     138.06342597       0.00006731       0.00000959       0.00000114        0        0       -1       58       26