25380
Lattice="16.98 0.0 0.0 0.0 92.13812457 0.0 0.0 0.0 184.16034012" Properties=species:S:1:pos:R:3:force:R:3:map_shift:I:3:n_neighb:I:1:Z:I:1 virial="-374.97892631 -61.15624748 -72.57523894 -61.15624748 -223.48500222 0.74172725 -72.57523894 0.74172725 -635.68955728" cutoff=5.3 adsorbate_info=T nneightol=1.2 energy=-101739.95228027 pbc="T T T"
Fe       1.01355519      18.31841614     137.72651665      -0.00062815      -0.00112004      -0.00132338        0        0       -1       54       26
Fe      -0.26893173       2.29548355     139.68846427      -0.00169325      -0.00072960      -0.00022133        0        0       -1       58       26
Fe       1.14846006       4.30333953     139.68620645      -0.00102274       0.00036730      -0.00027194        0        0       -1       58       26
Fe      -0.19769897       4.33288430     141.70731842      -0.00094298      -0.00068101      -0.00066591        0        0       -1       58       26
Fe       1.21284527       6.33688410     141.69499689      -0.00097638      -0.00006651      -0.00103481        0        0       -1       58       26
Fe      -0.14666174       6.39826207     143.70505323      -0.00213935       0.00057757      -0.00077381        0        0       -1       58       26
Fe       1.26716638       8.40059165     143.68515551      -0.00214234       0.00000379       0.00100532        0        0       -1       58       26
Fe      -0.10207544       8.47981672     145.68542961      -0.00197552       0.00049245       0.00030771        0        0       -1       58       26
Fe       1.31814124      10.48437305     145.65660739      -0.00173027       0.00002729       0.00038218        0        0       -1       58       26
Fe      -0.06000026      10.56993505     147.64794636      -0.00144477       0.00008208      -0.00037477        0        0       -1       58       26
Fe       1.36685959      12.57737186     147.60465987      -0.00122128       0.00004284       0.00031991        0        0       -1       58       26
Fe      -0.02084967      12.66357036     149.58885813      -0.00024620       0.00008259       0.00039205        0        0       -1       58       26
Fe       1.41078048      14.67251658     149.52476392      -0.00051150       0.00019800       0.00079090        0        0       -1       58       26
Fe       0.01354405      14.75768628     151.50517750      -0.00017264      -0.00030093       0.00027147        0        0       -1       58       26
Fe       1.44657801      16.76551789     151.41363691      -0.00068167      -0.00058331       0.00050186        0        0       -1       58       26
Fe       0.04066120      16.84873621     153.39713089      -0.00081594       0.00085059       0.00082059        0        0       -1       58       26
Fe       1.47177247      18.85193155     153.28275587      -0.00087528       0.00025502       0.00067625        0        0       -1       58       26
Fe       0.05920617      18.93547848     155.27682408      -0.00091093       0.00050881       0.00061513        0        0       -1       58       26
Fe       1.48676345      20.93409530     155.16040369       0.00041521       0.00035414      -0.00010959        0        0       -1       58       26
Fe       0.07012052      21.01904638     157.16379344       0.00023047       0.00010921       0.00004727        0        0       -1       58       26
Fe       1.49443642      23.01575769     157.05863330       0.00047516       0.00054013       0.00048010        0        0       -1       58       26
Fe       0.07577595      23.10193539     159.06534344      -0.00001227      -0.00071597       0.00060083        0        0       -1       58       26
Fe       1.49733768      25.09867165     158.97126758      -0.00040935      -0.00031911       0.00206543        0        0       -1       58       26
Fe       0.07775430      25.18516634     160.97790844      -0.00099400      -0.00095496       0.00175409        0        0       -1       58       26
Fe       1.49686433      27.18275204     160.89241285      -0.00081546      -0.00093837       0.00033450        0        0       -1       58       26
Fe       0.07681585      27.26924531     162.89751977      -0.00045933      -0.00064625       0.00065946        0        0       -1       58       26
Fe       1.49401753      29.26780426     162.81596681       0.00004776      -0.00067291       0.00122838        0        0       -1       58       26
Fe       0.07440942      29.35418033     164.81936960      -0.00017167      -0.00101649       0.00000353        0        0       -1       58       26
Fe       1.49029729      31.35340594     164.73875494       0.00041990      -0.00101326       0.00056105        0        0       -1       58       26
Fe       0.07151777      31.43908459     166.74034874      -0.00022170       0.00028812      -0.00017645        0        0       -1       58       26
Fe       1.48659565      33.43871171     166.65836851       0.00009539       0.00054612       0.00040703        0        0       -1       58       26
Fe       0.06854556      33.52481533     168.65877985       0.00063732       0.00055444       0.00022114        0        0       -1       58       26
Fe       1.48326703      35.52484836     168.57437577       0.00038320       0.00086158       0.00019948        0        0       -1       58       26
Fe       0.06622227      35.61112670     170.57433012      -0.00027260       0.00002103      -0.00000298        0        0       -1       58       26
Fe       1.48067671      37.61104115     170.48691112      -0.00060580       0.00007065      -0.00035237        0        0       -1       58       26
Fe       0.06413803      37.69706560     172.48724148       0.00033224      -0.00043387      -0.00001996        0        0       -1       58       26
Fe       1.47845885      39.69642231     172.39751857       0.00051387       0.00043522      -0.00037075        0        0       -1       58       26
Fe       0.06273447      39.78249932     174.39848340      -0.00048359      -0.00018761       0.00019667        0        0       -1       58       26
Fe       1.47711754      41.78177862     174.30817098       0.00020290      -0.00011447       0.00039138        0        0       -1       58       26
Fe       0.06167536      41.86776233     176.30999665       0.00062394      -0.00062662       0.00090223        0        0       -1       58       26
Fe       1.47628822      43.86697834     176.22027221       0.00076439      -0.00088061      -0.00062476        0        0       -1       58       26
Fe       0.06129312      43.95229311     178.22274565       0.00120780      -0.00011747       0.00010550        0        0       -1       58       26
Fe       1.47613105      45.95136223     178.13345065       0.00199946      -0.00089192      -0.00055978        0        0       -1       58       26
Fe       0.06188267      46.03668063     180.13624012       0.00075300      -0.00004419      -0.00027011        0        0       -1       58       26
Fe       1.14364071       0.28689298     139.69110225      -0.00131753      -0.00061318      -0.00026972        0        0       -1       58       26
Fe      -0.16071503       0.32273034     141.75303571      -0.00047545      -0.00028284      -0.00071115        0        0       -1       58       26
Fe       1.22931154       2.32760289     141.72387706      -0.00124536      -0.00101279       0.00007885        0        0       -1       58       26
Fe      -0.11981191       2.39778604     143.75692472      -0.00163300      -0.00061376       0.00047592        0        0       -1       58       26
Fe       1.27683393       4.39716212     143.72746736      -0.00187996      -0.00057958      -0.00104410        0        0       -1       58       26
Fe      -0.09059392       4.47898305     145.74648878      -0.00080202       0.00030384      -0.00155920        0        0       -1       58       26
Fe       1.31474437       6.47800386     145.71399536      -0.00140474       0.00022751      -0.00026220        0        0       -1       58       26
Fe      -0.06260038       6.56455004     147.72231167      -0.00123544       0.00058027       0.00052410        0        0       -1       58       26
Fe       1.35039229       8.56572211     147.68530611      -0.00196058       0.00008118       0.00021457        0        0       -1       58       26
Fe      -0.03472895       8.65377002     149.68545920      -0.00199464       0.00083943      -0.00026368        0        0       -1       58       26
Fe       1.38404948      10.65724637     149.64009547      -0.00029775      -0.00001904      -0.00019935        0        0       -1       58       26
Fe      -0.00830405      10.74523286     151.63344423      -0.00011154       0.00058834      -0.00058646        0        0       -1       58       26
Fe       1.41515156      12.75036563     151.57548367      -0.00031687       0.00056788      -0.00056729        0        0       -1       58       26
Fe       0.01618919      12.83752038     153.56435492      -0.00119206       0.00059465      -0.00025897        0        0       -1       58       26
Fe       1.44178999      14.84300908     153.48952365      -0.00103956       0.00082342       0.00049319        0        0       -1       58       26
Fe       0.03647890      14.92923378     155.47729564      -0.00081534       0.00017800       0.00045082        0        0       -1       58       26
Fe       1.46207033      16.93335429     155.38503396      -0.00130567       0.00091279       0.00047535        0        0       -1       58       26
Fe       0.05158562      17.01903799     157.37617853      -0.00112347      -0.00089000       0.00011491        0        0       -1       58       26
Fe       1.47561203      19.02039198     157.27280217      -0.00078366      -0.00088376       0.00071267        0        0       -1       58       26
Fe       0.06128928      19.10534356     159.27019257       0.00030518      -0.00060487       0.00039837        0        0       -1       58       26
Fe       1.48354713      21.10449272     159.16638114       0.00023899      -0.00105761       0.00039495        0        0       -1       58       26
Fe       0.06720992      21.18937921     161.16846799      -0.00022835      -0.00017390       0.00111888        0        0       -1       58       26
Fe       1.48765298      23.18766342     161.07069409      -0.00020474      -0.00085110       0.00003471        0        0       -1       58       26
Fe       0.06989451      23.27299800     163.07493546      -0.00027153       0.00049331       0.00065110        0        0       -1       58       26
Fe       1.48865396      25.27112455     162.98339753      -0.00014001       0.00000602       0.00135491        0        0       -1       58       26
Fe      17.04998157      25.35710256     164.98796137       0.00133663      -0.00034413       0.00072020       -1        0       -1       58       26
Fe       1.48751612      27.35546778     164.90185795       0.00068850      -0.00037550       0.00011192        0        0       -1       58       26
Fe       0.06913302      27.44126587     166.90552670       0.00112601      -0.00057358       0.00073406        0        0       -1       58       26
Fe       1.48572122      29.43997303     166.82239891       0.00009776      -0.00040624      -0.00077122        0        0       -1       58       26
Fe       0.06776967      29.52576941     168.82502742       0.00046208       0.00005606      -0.00052088        0        0       -1       58       26
Fe       1.48337770      31.52503817     168.74182427       0.00077759       0.00045808       0.00015013        0        0       -1       58       26
Fe       0.06604058      31.61145931     170.74325063       0.00052708      -0.00021822       0.00011007        0        0       -1       58       26
Fe       1.48130777      33.61120269     170.65939825       0.00051544      -0.00035214       0.00003159        0        0       -1       58       26
Fe       0.06457037      33.69779730     172.66025982       0.00015590      -0.00093528      -0.00032936        0        0       -1       58       26
Fe       1.47955306      35.69751045     172.57475689       0.00003620      -0.00114055       0.00018059        0        0       -1       58       26
Fe       0.06323167      35.78352581     174.57558719       0.00048724      -0.00066337      -0.00019283        0        0       -1       58       26
Fe       1.47808350      37.78303536     174.48806310       0.00030221       0.00002465      -0.00038345        0        0       -1       58       26
Fe       0.06230956      37.86863976     176.48910251      -0.00005854       0.00095766      -0.00045139        0        0       -1       58       26
Fe       1.47711008      39.86831521     176.39959623      -0.00037344       0.00003726       0.00161340        0        0       -1       58       26
Fe       0.06160316      39.95380183     178.40106816       0.00077507       0.00021642       0.00189915        0        0       -1       58       26
Fe       1.47644367      41.95316253     178.31203068       0.00072108       0.00006510       0.00052764        0        0       -1       58       26
Fe       0.06175909      42.03838747     180.31425083       0.00020251       0.00121917      -0.00012015        0        0       -1       58       26
Fe       1.47674364      44.03758058     180.22525539       0.00067467       0.00066873      -0.00012702        0        0       -1       58       26
Fe       0.06259121      44.12373531     182.22772592       0.00046274       0.00038901       0.00015921        0        0       -1       58       26
Fe       1.47770744      46.12261191     182.13887208       0.00021727       0.00058993      -0.00014041        0       -1       -1       58       26
Fe       1.32739684       0.40202937     143.80488366      -0.00134426      -0.00059309      -0.00093167        0        0       -1       58       26
Fe      -0.04241421       0.49251843     145.84899932      -0.00049440       0.00029332       0.00001386        0        0       -1       58       26
Fe       1.34316377       2.48351676     145.78751041      -0.00080447       0.00016098       0.00010162        0        0       -1       58       26
Fe      -0.03703661       2.57251077     147.81498370      -0.00113353       0.00097581      -0.00040855        0        0       -1       58       26
Fe       1.36141483       4.56670491     147.76398116      -0.00090761       0.00089726      -0.00170921        0        0       -1       58       26
Fe      -0.02516683       4.65607406     149.77970680      -0.00140732       0.00070576      -0.00127612        0        0       -1       58       26
Fe       1.38217685       6.65337595     149.73003455      -0.00217286       0.00085681       0.00077830        0        0       -1       58       26
Fe      -0.01001481       6.74296460     151.73732444      -0.00103920      -0.00054791       0.00016461        0        0       -1       58       26
Fe       1.40355355       8.74275743     151.68576004      -0.00140255       0.00032625      -0.00109063        0        0       -1       58       26
Fe       0.00627282       8.83176419     153.68622805      -0.00010914      -0.00036234      -0.00061873        0        0       -1       58       26
Fe       1.42425280      10.83365122     153.62776488      -0.00037829      -0.00042149       0.00033605        0        0       -1       58       26
Fe       0.02254137      10.92176782     155.62327688      -0.00004356       0.00038186       0.00011529        0        0       -1       58       26
Fe       1.44315567      12.92495628     155.55529821      -0.00069072       0.00034868      -0.00075128        0        0       -1       58       26
Fe       0.03718501      13.01261523     157.54795741      -0.00104019      -0.00067674      -0.00019681        0        0       -1       58       26
Fe       1.45853870      15.01599229     157.46783137      -0.00090054      -0.00084272       0.00006633        0        0       -1       58       26
Fe       0.04857454      15.10200493     159.46067116      -0.00128205      -0.00007846      -0.00066747        0        0       -1       58       26
Fe       1.46949131      17.10434149     159.36956394      -0.00036388      -0.00043651       0.00101095        0        0       -1       58       26
Fe       0.05635411      17.18923849     161.36480485       0.00047906       0.00062165       0.00124562        0        0       -1       58       26
Fe       1.47663715      19.18998059     161.26847913       0.00011490       0.00089179       0.00011854        0        0       -1       58       26
Fe       0.06169456      19.27511155     163.26753340      -0.00048576       0.00035224      -0.00038852        0        0       -1       58       26
Fe       1.48085189      21.27449309     163.17032168      -0.00047450       0.00076177       0.00118941        0        0       -1       58       26
Fe       0.06434693      21.36007355     165.17215060       0.00037321      -0.00034990       0.00049509        0        0       -1       58       26
Fe       1.48232456      23.35884224     165.07850047       0.00041678      -0.00047879       0.00038207        0        0       -1       58       26
Fe       0.06520616      23.44428526     167.08164415       0.00093953      -0.00060348       0.00073110        0        0       -1       58       26
Fe       1.48221772      25.44275282     166.99184960       0.00153586      -0.00042849       0.00098206        0        0       -1       58       26
Fe       0.06523355      25.52806723     168.99528932       0.00043076       0.00048829       0.00080480        0        0       -1       58       26
Fe       1.48173136      27.52679597     168.90876787       0.00001359       0.00016904       0.00131572        0        0       -1       58       26
Fe       0.06467177      27.61266016     170.91168103       0.00006036       0.00108430       0.00032529        0        0       -1       58       26
Fe       1.48052577      29.61179652     170.82730446       0.00024694       0.00108773      -0.00087148        0        0       -1       58       26
Fe       0.06363721      29.69857220     172.82916794       0.00109276       0.00016272      -0.00036661        0        0       -1       58       26
Fe       1.47930566      31.69811351     172.74458550       0.00004002      -0.00076804       0.00024388        0        0       -1       58       26
Fe       0.06285855      31.78446903     174.74600508       0.00047172      -0.00086313       0.00068168        0        0       -1       58       26
Fe       1.47827097      33.78398473     174.66131770      -0.00026423      -0.00046483       0.00004499        0        0       -1       58       26
Fe       0.06220274      33.86955856     176.66259088      -0.00014859       0.00015180      -0.00026896        0        0       -1       58       26
Fe       1.47735403      35.86911125     176.57670525      -0.00002092       0.00070458      -0.00055967        0        0       -1       58       26
Fe       0.06156747      35.95485055     178.57796399       0.00042112       0.00009525      -0.00104437        0        0       -1       58       26
Fe       1.47670607      37.95445976     178.49041438       0.00005877      -0.00023518      -0.00073366        0        0       -1       58       26
Fe       0.06139262      38.03988791     180.49187881       0.00053619       0.00035077      -0.00079238        0        0       -1       58       26
Fe       1.47647465      40.03918989     180.40300810       0.00134419       0.00118512       0.00058220        0        0       -1       58       26
Fe       0.06189583      40.12548447     182.40499138       0.00135533       0.00106883       0.00078897        0        0       -1       58       26
Fe       1.47738208      42.12464474     182.31645730       0.00012119       0.00087926       0.00045574        0        0       -1       58       26
Fe       1.40214978       0.58232745     147.88573284      -0.00007922       0.00035697       0.00017180        0        0       -1       58       26
Fe       0.00757344       0.67087814     149.91561451      -0.00023521       0.00048066       0.00002356        0        0       -1       58       26
Fe       1.40340020       2.66196498     149.83868899      -0.00085231       0.00057414      -0.00043295        0        0       -1       58       26
Fe       0.00730461       2.75117891     151.85884996      -0.00134501       0.00034070      -0.00053052        0        0       -1       58       26
Fe       1.41129178       4.74576095     151.79349371      -0.00070363      -0.00024266      -0.00063247        0        0       -1       58       26
Fe       0.01250072       4.83482130     153.80552829      -0.00074142       0.00048961      -0.00021980        0        0       -1       58       26
Fe       1.42241117       6.83215109     153.74382350      -0.00008180      -0.00017099      -0.00003492        0        0       -1       58       26
Fe       0.02066268       6.92104782     155.74969134       0.00053036      -0.00001700      -0.00091711        0        0       -1       58       26
Fe       1.43510768       8.92039363     155.68677980      -0.00004288       0.00046683      -0.00056294        0        0       -1       58       26
Fe       0.03071270       9.00899755     157.68740193      -0.00051778      -0.00017085       0.00018053        0        0       -1       58       26
Fe       1.44779682      11.01007815     157.61960775      -0.00043941      -0.00023336       0.00061113        0        0       -1       58       26
Fe       0.04045354      11.09762325     159.61691707      -0.00070704      -0.00025522       0.00112588        0        0       -1       58       26
Fe       1.45883373      13.09950413     159.54211201      -0.00137186      -0.00012440       0.00101767        0        0       -1       58       26
Fe       0.04841071      13.18578273     161.53785980      -0.00037370       0.00015130       0.00102732        0        0       -1       58       26
Fe       1.46691441      15.18764452     161.45512823       0.00012608       0.00049264      -0.00010566        0        0       -1       58       26
Fe       0.05429263      15.27353303     163.45099328       0.00046882       0.00029637       0.00052626        0        0       -1       58       26
Fe       1.47277293      17.27476939     163.36152184       0.00010354       0.00015664       0.00070462        0        0       -1       58       26
Fe       0.05854324      17.36041831     165.35924630      -0.00043702       0.00014161       0.00107228        0        0       -1       58       26
Fe       1.47639568      19.36074588     165.26705990       0.00000393      -0.00059026      -0.00037556        0        0       -1       58       26
Fe       0.06082408      19.44607950     167.26708527       0.00098115       0.00022057      -0.00040587        0        0       -1       58       26
Fe       1.47806554      21.44545136     167.17383858       0.00097798       0.00008027       0.00068358        0        0       -1       58       26
Fe       0.06216486      21.53070961     169.17558165      -0.00013438       0.00069338       0.00101701        0        0       -1       58       26
Fe       1.47880242      23.52942431     169.08443196       0.00033137       0.00094703       0.00103965        0        0       -1       58       26
Fe       0.06245460      23.61506721     171.08709186       0.00067117       0.00131325       0.00037439        0        0       -1       58       26
Fe       1.47854302      25.61374522     170.99831244       0.00129313       0.00146458       0.00067980        0        0       -1       58       26
Fe       0.06227003      25.70040664     173.00105420       0.00110186      -0.00006742       0.00019461        0        0       -1       58       26
Fe       1.47808456      27.69930476     172.91425121       0.00052896       0.00036454       0.00021581        0        0       -1       58       26
Fe       0.06193253      27.78582934     174.91653326       0.00039833      -0.00088757       0.00013062        0        0       -1       58       26
Fe       1.47728274      29.78510865     174.83096300       0.00160102      -0.00103040       0.00062401        0        0       -1       58       26
Fe       0.06142352      29.87071759     176.83277970       0.00078833      -0.00032681       0.00039094        0        0       -1       58       26
Fe       1.47683059      31.87012235     176.74759571       0.00048314       0.00010250       0.00010385        0        0       -1       58       26
Fe       0.06105544      31.95568433     178.74910804       0.00114550       0.00035767       0.00080547        0        0       -1       58       26
Fe       1.47628106      33.95534456     178.66399444       0.00118447      -0.00028330      -0.00024734        0        0       -1       58       26
Fe       0.06081487      34.04072156     180.66546331       0.00183651       0.00126814      -0.00039383        0        0       -1       58       26
Fe       1.47612786      36.04039559     180.57928135       0.00113964       0.00062006      -0.00063573        0        0       -1       58       26
Fe       0.06128225      36.12659822     182.58065865       0.00122650       0.00153884       0.00087374        0        0       -1       58       26
Fe       1.47647750      38.12617285     182.49351931       0.00176038       0.00103775      -0.00014865        0        0       -1       58       26
Fe       1.43727797       0.75896517     151.93958342      -0.00098061      -0.00019068      -0.00001504        0        0       -1       58       26
Fe       0.03289994       0.84650444     153.95895000      -0.00144253      -0.00040600       0.00000140        0        0       -1       58       26
Fe       1.43626622       2.83977879     153.87582360      -0.00167348       0.00005360      -0.00120490        0        0       -1       58       26
Fe       0.03136166       2.92801882     155.88994506      -0.00072616      -0.00034234      -0.00122152        0        0       -1       58       26
Fe       1.43956726       4.92370772     155.81591659       0.00031539      -0.00034217      -0.00046032        0        0       -1       58       26
Fe       0.03373269       5.01197363     157.82473402       0.00075611      -0.00030872       0.00033589        0        0       -1       58       26
Fe       1.44600461       7.00964771     157.75482577       0.00044573      -0.00026919      -0.00107923        0        0       -1       58       26
Fe       0.03893459       7.09746000     159.75918720      -0.00033944       0.00006631      -0.00033106        0        0       -1       58       26
Fe       1.45388605       9.09688771     159.68816196      -0.00071964      -0.00040043       0.00053930        0        0       -1       58       26
Fe       0.04487025       9.18404946     161.68913315      -0.00084179      -0.00033925       0.00096764        0        0       -1       58       26
Fe       1.46114472      11.18450110     161.61511449      -0.00115726      -0.00004461       0.00054734        0        0       -1       58       26
Fe       0.05008491      11.27115702     163.61402626      -0.00081909       0.00013443       0.00036299        0        0       -1       58       26
Fe       1.46675265      13.27218831     163.53484021       0.00005922       0.00000327       0.00044552        0        0       -1       58       26
Fe       0.05412370      13.35859387     165.53285878       0.00024776       0.00053708      -0.00068000        0        0       -1       58       26
Fe       1.47111039      15.35958544     165.44802182      -0.00043256       0.00023401       0.00042517        0        0       -1       58       26
Fe       0.05706473      15.44579721     167.44595085       0.00049019      -0.00041881       0.00166027        0        0       -1       58       26
Fe       1.47386248      17.44615684     167.35795356       0.00011093       0.00030805       0.00051479        0        0       -1       58       26
Fe       0.05900183      17.53207069     169.35742388       0.00062709      -0.00106057      -0.00004929        0        0       -1       58       26
Fe       1.47549484      19.53162857     169.26753962       0.00035893      -0.00005255      -0.00064399        0        0       -1       58       26
Fe       0.06015056      19.61715584     171.26828283       0.00090308      -0.00018423      -0.00157556        0        0       -1       58       26
Fe       1.47639864      21.61627648     171.17738530       0.00016294       0.00051600      -0.00006552        0        0       -1       58       26
Fe       0.06081364      21.70249192     173.17905794       0.00040683      -0.00091305      -0.00069433        0        0       -1       58       26
Fe       1.47653657      23.70157162     173.08955819       0.00053323      -0.00079839      -0.00046997        0        0       -1       58       26
Fe       0.06093048      23.78754017     175.09171068       0.00025549      -0.00075839      -0.00066339        0        0       -1       58       26
Fe       1.47651339      25.78670055     175.00352464      -0.00040570      -0.00084365      -0.00078999        0        0       -1       58       26
Fe       0.06084678      25.87209434     177.00560848      -0.00000932       0.00016871      -0.00049720        0        0       -1       58       26
Fe       1.47605129      27.87142772     176.91864327       0.00125810      -0.00033412      -0.00029441        0        0       -1       58       26
Fe       0.06061330      27.95690354     178.92044386       0.00090672       0.00051393      -0.00000477        0        0       -1       58       26
Fe       1.47595174      29.95625817     178.83455169      -0.00011919       0.00038709      -0.00027990        0        0       -1       58       26
Fe       0.06066537      30.04185357     180.83615652       0.00019589       0.00132176       0.00059839        0        0       -1       58       26