27600
Lattice="16.98 0.0 0.0 0.0 96.38632683 0.0 0.0 0.0 191.32276353" Properties=species:S:1:pos:R:3:force:R:3:map_shift:I:3:n_neighb:I:1:Z:I:1 nneightol=1.2 virial="-180.28098879 101.03962553 -0.51530256 101.03962553 -105.08779066 -1.53492764 -0.51530256 -1.53492764 -0.4697936" energy=-110594.79595395 cutoff=5.3 pbc="T T T"
Fe       0.86681668      24.26432833     143.45038759       0.00452260       0.00131997      -0.00275607        0        0       -1       53       26 
Fe       0.28196802       2.21710197     144.42305456      -0.00206182      -0.00052560       0.00001777        0        0       -1       57       26 
Fe       1.69188923       4.18201570     144.40684961      -0.00134244       0.00157596       0.00044081        0        0       -1       59       26 
Fe       0.11389598       4.26490024     146.50672473      -0.00288026       0.00033688      -0.00007283        0        0       -1       59       26 
Fe       1.56538233       6.26055523     146.43490205      -0.00279373      -0.00166876      -0.00049385        0        0       -1       58       26 
Fe       0.07441439       6.42249187     148.45688055      -0.00312006       0.00164040       0.00035026        0        0       -1       58       26 
Fe       1.49643762       8.42142251     148.37951359      -0.00273029       0.00066488      -0.00124484        0        0       -1       58       26 
Fe       0.03351215       8.59951312     150.36688058      -0.00209289       0.00012530       0.00077871        0        0       -1       58       26 
Fe       1.43306573      10.60626961     150.25670597      -0.00209901       0.00009939      -0.00026629        0        0       -1       58       26 
Fe      -0.00647999      10.77862721     152.22680565      -0.00055973      -0.00113138       0.00072700        0        0       -1       58       26 
Fe       1.38509695      12.78098759     152.05553107      -0.00218968      -0.00070333       0.00039340        0        0       -1       58       26 
Fe      -0.03434671      12.94989054     154.03363003      -0.00204471      -0.00211526       0.00057255        0        0       -1       58       26 
Fe       1.36171547      14.94049499     153.83094746      -0.00180115      -0.00149552      -0.00030254        0        0       -1       58       26 
Fe      -0.04703176      15.11108258     155.83219690      -0.00144877      -0.00156789       0.00073973        0        0       -1       58       26 
Fe       1.35696293      17.10110741     155.66009974      -0.00078612      -0.00076712       0.00057661        0        0       -1       58       26 
Fe      -0.04888671      17.27185285     157.66146631      -0.00045909      -0.00188930      -0.00012909        0        0       -1       58       26 
Fe       1.36150324      19.26472824     157.50584740      -0.00134009      -0.00137158      -0.00072265        0        0       -1       58       26 
Fe      -0.04507721      19.43412351     159.50154597      -0.00087673      -0.00128126      -0.00048197        0        0       -1       58       26 
Fe       1.36913834      21.42949274     159.34694384      -0.00050604      -0.00138877      -0.00054654        0        0       -1       58       26 
Fe      -0.03927998      21.59684770     161.33794515      -0.00095957      -0.00089410      -0.00011229        0        0       -1       58       26 
Fe       1.37664452      23.59285114     161.17531705      -0.00090204      -0.00112357      -0.00039343        0        0       -1       58       26 
Fe      -0.03363277      23.75831503     163.16545121      -0.00091786      -0.00035389      -0.00003135        0        0       -1       58       26 
Fe       1.38248719      25.75337822     162.99511618      -0.00068740      -0.00079555      -0.00053669        0        0       -1       58       26 
Fe      -0.02899707      25.91807223     164.98765296      -0.00089987       0.00042222       0.00057143        0        0       -1       58       26 
Fe       1.38659071      27.91203396     164.81611559      -0.00027273       0.00020622       0.00026050        0        0       -1       58       26 
Fe      -0.02561253      28.07722993     166.81103817      -0.00097349       0.00070467       0.00005104        0        0       -1       58       26 
Fe       1.38944995      30.07078216     166.64250401      -0.00090574       0.00065159      -0.00009427        0        0       -1       58       26 
Fe      -0.02324931      30.23692908     168.63798417      -0.00054670       0.00083143      -0.00054011        0        0       -1       58       26 
Fe       1.39141703      32.23060833     168.47212434      -0.00026746       0.00082353      -0.00041873        0        0       -1       58       26 
Fe      -0.02136624      32.39758294     170.46707120      -0.00013583       0.00051713      -0.00023696        0        0       -1       58       26 
Fe       1.39318153      34.39157335     170.30210014      -0.00009336       0.00065376      -0.00083891        0        0       -1       58       26 
Fe      -0.01947225      34.55892046     172.29637191      -0.00009811       0.00006384      -0.00059112        0        0       -1       58       26 
Fe       1.39509125      36.55315492     172.13086932       0.00000420      -0.00001470      -0.00020804        0        0       -1       58       26 
Fe      -0.01745933      36.72043694     174.12487259      -0.00022630      -0.00023748      -0.00106996        0        0       -1       58       26 
Fe       1.39715374      38.71469897     173.95877803      -0.00008167      -0.00011880      -0.00083798        0        0       -1       58       26 
Fe      -0.01550928      38.88180113     175.95257406      -0.00019158      -0.00024284      -0.00035086        0        0       -1       58       26 
Fe       1.39913915      40.87604859     175.78627394      -0.00011648      -0.00015429       0.00015170        0        0       -1       58       26 
Fe      -0.01369887      41.04299952     177.78004984      -0.00024684      -0.00003077       0.00046668        0        0       -1       58       26 
Fe       1.40095351      43.03724933     177.61387103      -0.00010437       0.00000320       0.00044106        0        0       -1       58       26 
Fe      -0.01203848      43.20414592     179.60769422      -0.00023184      -0.00025994      -0.00105579        0        0       -1       58       26 
Fe       1.40267497      45.19838126     179.44151141      -0.00006681      -0.00011079      -0.00063190        0        0       -1       58       26 
Fe      -0.01044896      45.36517729     181.43513744      -0.00018465       0.00001565       0.00023902        0        0       -1       58       26 
Fe       1.40439738      47.35937593     181.26901502      -0.00018778       0.00017829       0.00029585        0        0       -1       58       26 
Fe      -0.00891061      47.52613758     183.26272375      -0.00031047      -0.00002792       0.00021140        0        0       -1       58       26 
Fe       1.14620517       0.18552354     145.37033669      -0.00131783      -0.00205768       0.00001434        0        0       -1       54       26 
Fe      -0.16239051       0.27246370     147.27016575      -0.00048311      -0.00005840       0.00038987        0        0       -1       56       26 
Fe       1.45600887       2.28707891     146.68268989      -0.00318888       0.00080879       0.00002229        0        0       -1       58       26 
Fe      -0.01788478       2.46075520     148.76844030      -0.00250740       0.00074893       0.00015838        0        0       -1       57       26 
Fe       1.45522881       4.43506972     148.56849510      -0.00188455       0.00179914       0.00032488        0        0       -1       58       26 
Fe       0.00627125       4.61568164     150.60608556      -0.00156063      -0.00009410      -0.00113798        0        0       -1       58       26 
Fe       1.44354077       6.60239303     150.47168471      -0.00109271       0.00137566      -0.00095098        0        0       -1       58       26 
Fe       0.00196905       6.78155770     152.48084292      -0.00034337      -0.00040864      -0.00042473        0        0       -1       58       26 
Fe       1.41938797       8.77666374     152.35648715      -0.00214670      -0.00053928      -0.00119989        0        0       -1       58       26 
Fe      -0.01231975       8.95250045     154.34736846      -0.00093947      -0.00227579       0.00054143        0        0       -1       58       26 
Fe       1.39553343      10.95113758     154.20502010      -0.00126230      -0.00217717      -0.00069637        0        0       -1       58       26 
Fe      -0.02612454      11.12242012     156.18853251      -0.00094275      -0.00255896       0.00123839        0        0       -1       58       26 
Fe       1.37970619      13.11884992     156.01902745      -0.00067050      -0.00183532       0.00122827        0        0       -1       58       26 
Fe      -0.03475787      13.28719151     158.00808046      -0.00142868      -0.00181795       0.00107203        0        0       -1       58       26 
Fe       1.37312845      15.27998906     157.83077689      -0.00137396      -0.00081755      -0.00028691        0        0       -1       58       26 
Fe      -0.03797742      15.44782120     159.82733997      -0.00085855      -0.00174893       0.00034189        0        0       -1       58       26 
Fe       1.37290536      17.44046746     159.66026670      -0.00086546      -0.00136223      -0.00002466        0        0       -1       58       26 
Fe      -0.03722776      17.60760442     161.65713257      -0.00013607      -0.00115288       0.00007793        0        0       -1       58       26 
Fe       1.37610594      19.60163782     161.49656059      -0.00012702      -0.00145982      -0.00055658        0        0       -1       58       26 
Fe      -0.03413190      19.76771105     163.49092265      -0.00062925      -0.00017460       0.00004650        0        0       -1       58       26 
Fe       1.38071550      21.76279137     163.32987385      -0.00036541      -0.00035770      -0.00039108        0        0       -1       58       26 
Fe      -0.03018671      21.92819405     165.32222193      -0.00034748       0.00026347      -0.00000223        0        0       -1       58       26 
Fe       1.38525124      23.92333440     165.15695647      -0.00064108       0.00018404       0.00024738        0        0       -1       58       26 
Fe      -0.02633252      24.08876226     167.14922714      -0.00057000       0.00091229       0.00053993        0        0       -1       58       26 
Fe       1.38905189      26.08329894     166.98084768      -0.00097168       0.00078028       0.00026972        0        0       -1       58       26 
Fe      16.95688659      26.24943458     168.97428329      -0.00103376       0.00040529       0.00028755       -1        0       -1       58       26 
Fe       1.39194319      28.24336461     168.80563230      -0.00104719       0.00042624       0.00069567        0        0       -1       58       26 
Fe      -0.02070716      28.41010113     170.80013681      -0.00041170       0.00034630       0.00007286        0        0       -1       58       26 
Fe       1.39408335      30.40384529     170.63292358      -0.00040540       0.00030714       0.00041438        0        0       -1       58       26 
Fe      -0.01867122      30.57096056     172.62767119      -0.00015697       0.00001583      -0.00008169        0        0       -1       58       26 
Fe       1.39596317      32.56485511     172.46177392      -0.00007847       0.00006233      -0.00048525        0        0       -1       58       26 
Fe      -0.01668613      32.73202477     174.45627594      -0.00033141       0.00006569      -0.00092785        0        0       -1       58       26 
Fe       1.39790288      34.72616979     174.29058398      -0.00019625      -0.00009065      -0.00068641        0        0       -1       58       26 
Fe      -0.01472632      34.89324555     176.28467114      -0.00035369      -0.00004534      -0.00060882        0        0       -1       58       26 
Fe       1.39986886      36.88750639     176.11874128      -0.00026876      -0.00014784      -0.00050646        0        0       -1       58       26 
Fe      -0.01288420      37.05445486     178.11254018      -0.00051027      -0.00001206      -0.00010743        0        0       -1       58       26 
Fe       1.40170071      39.04874037     177.94635366      -0.00041979      -0.00010144       0.00005581        0        0       -1       58       26 
Fe      -0.01127718      39.21563325     179.94014354      -0.00050902      -0.00016629      -0.00074186        0        0       -1       58       26 
Fe       1.40332119      41.20989648     179.77392401      -0.00041882      -0.00025810      -0.00103283        0        0       -1       58       26 
Fe      -0.00986281      41.37674601     181.76760449      -0.00038303      -0.00019750      -0.00046244        0        0       -1       58       26 
Fe       1.40480507      43.37096712     181.60133131      -0.00026349      -0.00013981       0.00005463        0        0       -1       58       26 
Fe      -0.00854234      43.53777418     183.59498001      -0.00033250       0.00001017       0.00073026        0        0       -1       58       26 
Fe       1.40624076      45.53196187     183.42880608      -0.00032901      -0.00002279       0.00063568        0        0       -1       58       26 
Fe      -0.00730554      45.69875623     185.42259679      -0.00042743      -0.00015408      -0.00035207        0        0       -1       58       26 
Fe       1.40755085      47.69290046     185.25648678      -0.00039854      -0.00015967      -0.00022436        0        0       -1       58       26 
Fe      -0.00623444      47.85964794     187.25022575      -0.00046366       0.00003069       0.00020160        0        0       -1       58       26 
Fe       1.31390029       0.49301671     149.15406091      -0.00178181       0.00213965       0.00004679        0        0       -1       57       26 
Fe      -0.07318974       0.65521570     151.09563583      -0.00076976       0.00085947      -0.00028579        0        0       -1       58       26 
Fe       1.38497115       2.63707190     150.80549458      -0.00076825       0.00104220      -0.00086684        0        0       -1       58       26 
Fe      -0.03334197       2.80939980     152.82176989      -0.00082494      -0.00022975      -0.00025765        0        0       -1       58       26 
Fe       1.40316805       4.79321572     152.62886662      -0.00095680      -0.00092545      -0.00045636        0        0       -1       58       26 
Fe      -0.02124090       4.96816636     154.64171390      -0.00048595      -0.00199012       0.00129185        0        0       -1       58       26 
Fe       1.40167031       6.95785819     154.48607818      -0.00046609      -0.00265188      -0.00039135        0        0       -1       58       26 
Fe      -0.02143609       7.13112837     156.48791260      -0.00026345      -0.00245906       0.00014773        0        0       -1       58       26 
Fe       1.39375906       9.12525932     156.33978098      -0.00062995      -0.00205113       0.00025828        0        0       -1       58       26 
Fe      -0.02559560       9.29562829     158.33280142      -0.00048414      -0.00151657       0.00017018        0        0       -1       58       26 
Fe       1.38625441      11.29151935     158.17640068      -0.00142582      -0.00186404      -0.00033999        0        0       -1       58       26 
Fe      -0.02950043      11.45910578     160.16653477      -0.00103860      -0.00118391       0.00041374        0        0       -1       58       26 
Fe       1.38168920      13.45415411     159.99963168      -0.00096776      -0.00149769      -0.00008440        0        0       -1       58       26 
Fe      -0.03165701      13.62014042     161.99218630       0.00042654      -0.00088602       0.00079574        0        0       -1       58       26 
Fe       1.38049124      15.61403416     161.82318118      -0.00049066      -0.00080869      -0.00007789        0        0       -1       58       26 
Fe      -0.03154135      15.77955509     163.81831982      -0.00023471       0.00003543       0.00055534        0        0       -1       58       26 
Fe       1.38177914      17.77338227     163.65297892       0.00049520       0.00009657       0.00077386        0        0       -1       58       26 
Fe      -0.02973186      17.93906197     165.64826851      -0.00010361       0.00076015       0.00000530        0        0       -1       58       26 
Fe       1.38476901      19.93330542     165.48514278      -0.00014068       0.00109492       0.00005970        0        0       -1       58       26 
Fe      -0.02682550      20.09951389     167.47927861      -0.00002175       0.00066562      -0.00076715        0        0       -1       58       26 
Fe       1.38828599      22.09401856     167.31511450      -0.00056329       0.00111912       0.00045013        0        0       -1       58       26 
Fe      -0.02358764      22.26069685     169.30839825      -0.00028425       0.00063346      -0.00031353        0        0       -1       58       26 
Fe       1.39162048      24.25512195     169.14214245      -0.00076485       0.00083073       0.00049349        0        0       -1       58       26 
Fe      -0.02063497      24.42210281     171.13541628      -0.00064680      -0.00000174       0.00020880        0        0       -1       58       26 
Fe       1.39438702      26.41621282     170.96796687      -0.00052989       0.00038846       0.00066252        0        0       -1       58       26 
Fe      -0.01823653      26.58320727     172.96181043      -0.00012735       0.00017299       0.00026995        0        0       -1       58       26 
Fe       1.39663965      28.57712321     172.79450178      -0.00034579       0.00019090       0.00010746        0        0       -1       58       26 
Fe      -0.01609485      28.74410762     174.78877898      -0.00022576       0.00015373       0.00020512        0        0       -1       58       26 
Fe       1.39863459      30.73802606     174.62227373      -0.00021745       0.00017362      -0.00066373        0        0       -1       58       26 
Fe      -0.01409004      30.90499187     176.61661974      -0.00032688       0.00020397      -0.00018992        0        0       -1       58       26 
Fe       1.40060018      32.89907138     176.45055365      -0.00034608       0.00001555      -0.00044474        0        0       -1       58       26 
Fe      -0.01217822      33.06599639     178.44469423      -0.00057559       0.00011195      -0.00046722        0        0       -1       58       26 
Fe       1.40248522      35.06019896     178.27865090      -0.00056120       0.00000792      -0.00051444        0        0       -1       58       26 
Fe      -0.01051002      35.22708116     180.27251004      -0.00072415       0.00008557      -0.00046802        0        0       -1       58       26 
Fe       1.40413411      37.22135790     180.10633458      -0.00071680      -0.00009821      -0.00053761        0        0       -1       58       26 
Fe      -0.00914133      37.38822148     182.10003378      -0.00066074      -0.00013845      -0.00046915        0        0       -1       58       26 
Fe       1.40549938      39.38249462     181.93381485      -0.00049539      -0.00019700      -0.00051947        0        0       -1       58       26 
Fe      -0.00797377      39.54932424     183.92740230      -0.00050222      -0.00004256       0.00033667        0        0       -1       58       26 
Fe       1.40673505      41.54356707     183.76119940      -0.00041766      -0.00003727       0.00048401        0        0       -1       58       26 
Fe      -0.00689942      41.71039283     185.75490339      -0.00050807      -0.00010265      -0.00038404        0        0       -1       58       26 
Fe       1.40789096      43.70459460     185.58875030      -0.00048197      -0.00014443      -0.00053011        0        0       -1       58       26 
Fe      -0.00593464      43.87140081     187.58243464      -0.00058204      -0.00015046      -0.00042441        0        0       -1       58       26 
Fe       1.40891265      45.86554106     187.41631821      -0.00053885      -0.00004501      -0.00004155        0        0       -1       58       26 
Fe      -0.00514447      46.03232722     189.41004651      -0.00063549      -0.00000321       0.00026950        0        0       -1       58       26 
Fe       1.40973982      48.02642140     189.24402096      -0.00056947       0.00004135       0.00013817        0        0       -1       58       26 
Fe       1.35688777       0.82192147     153.06087018      -0.00009493      -0.00123669      -0.00021692        0        0       -1       58       26 
Fe      -0.04844143       0.99044994     155.03887501      -0.00089397      -0.00178055      -0.00024109        0        0       -1       58       26 
Fe       1.38068162       2.98094322     154.82808676       0.00049326      -0.00243629      -0.00031526        0        0       -1       58       26 
Fe      -0.03344014       3.15054566     156.82930752      -0.00101840      -0.00232418      -0.00084516        0        0       -1       58       26 
Fe       1.38899903       5.14006710     156.64840104      -0.00074084      -0.00182881      -0.00037214        0        0       -1       58       26 
Fe      -0.02778907       5.30956770     158.65080023      -0.00041552      -0.00201768       0.00021436        0        0       -1       58       26 
Fe       1.38967360       7.30142004     158.48760237      -0.00007453      -0.00135403      -0.00064972        0        0       -1       58       26 
Fe      -0.02658942       7.46967644     160.48551740      -0.00099742      -0.00125849       0.00069989        0        0       -1       58       26 
Fe       1.38784417       9.46372551     160.32647401      -0.00010043      -0.00140462       0.00096100        0        0       -1       58       26 
Fe      -0.02709648       9.63033827     162.32058869      -0.00041054      -0.00004089       0.00084750        0        0       -1       58       26 
Fe       1.38613883      11.62521983     162.15837997      -0.00081742      -0.00031952       0.00159653        0        0       -1       58       26 
Fe      -0.02757763      11.79090892     164.15147177      -0.00056269       0.00032206       0.00023765        0        0       -1       58       26 
Fe       1.38544280      13.78542955     163.98559856      -0.00006854       0.00023952       0.00076298        0        0       -1       58       26 
Fe      -0.02740920      13.95114566     165.97953475       0.00036408       0.00066081       0.00061715        0        0       -1       58       26 
Fe       1.38619558      15.94513888     165.81317865       0.00081580       0.00066226       0.00107319        0        0       -1       58       26 
Fe      -0.02609232      16.11147726     167.80799028       0.00080006       0.00061062       0.00063758        0        0       -1       58       26 
Fe       1.38833661      18.10535270     167.64312337       0.00037896       0.00069659      -0.00012448        0        0       -1       58       26 
Fe      -0.02368419      18.27229806     169.63776122       0.00042080       0.00048908       0.00015437        0        0       -1       58       26 
Fe       1.39119476      20.26636214     169.47328073       0.00019700       0.00059091      -0.00009220        0        0       -1       58       26 
Fe      -0.02080388      20.43359021     171.46727981      -0.00002958       0.00016264      -0.00018510        0        0       -1       58       26 
Fe       1.39421582      22.42782580     171.30188891      -0.00033990      -0.00001763      -0.00029174        0        0       -1       58       26 
Fe      -0.01806122      22.59497088     173.29544439      -0.00021762      -0.00002009      -0.00024372        0        0       -1       58       26 
Fe       1.39687147      24.58915318     173.12897512      -0.00019300      -0.00004971       0.00012516        0        0       -1       58       26 
Fe      -0.01569741      24.75612846     175.12262695      -0.00011804       0.00002897       0.00019567        0        0       -1       58       26 
Fe       1.39913889      26.75018416     174.95581653      -0.00020467      -0.00006787      -0.00023920        0        0       -1       58       26 
Fe      -0.01359948      26.91705649     176.94978337      -0.00032821       0.00011929       0.00013043        0        0       -1       58       26 
Fe       1.40116782      28.91103215     176.78307986      -0.00032783       0.00015672       0.00004239        0        0       -1       58       26 
Fe      -0.01168200      29.07789842     178.77732126      -0.00057734       0.00015816      -0.00037507        0        0       -1       58       26 
Fe       1.40307593      31.07191409     178.61088442      -0.00052137       0.00014336      -0.00033862        0        0       -1       58       26 
Fe      -0.00997197      31.23878318     180.60503377      -0.00075138       0.00017587      -0.00038047        0        0       -1       58       26 
Fe       1.40479315      33.23288828     180.43871202      -0.00079983       0.00018785      -0.00043013        0        0       -1       58       26 
Fe      -0.00856401      33.39976809     182.43261480      -0.00076387       0.00012006      -0.00016080        0        0       -1       58       26 
Fe       1.40618275      35.39397134     182.26627207      -0.00075203      -0.00002051      -0.00024224        0        0       -1       58       26 
Fe      -0.00744035      35.56084059     184.25998544      -0.00061095       0.00000595      -0.00003262        0        0       -1       58       26 
Fe       1.40731341      37.55507129     184.09364562      -0.00057343      -0.00001175       0.00012494        0        0       -1       58       26 
Fe      -0.00647897      37.72192318     186.08727870      -0.00052094       0.00006010       0.00010024        0        0       -1       58       26 
Fe       1.40832274      39.71615821     185.92103726      -0.00053438      -0.00001837      -0.00005691        0        0       -1       58       26 
Fe      -0.00562493      39.88299785     187.91466722      -0.00057529      -0.00006893      -0.00029882        0        0       -1       58       26 
Fe       1.40922962      41.87721215     187.74853159      -0.00060930      -0.00013903      -0.00047198        0        0       -1       58       26 
Fe      -0.00492315      42.04401559     189.74207709      -0.00065554      -0.00000270       0.00042797        0        0       -1       58       26 
Fe       1.40997206      44.03819355     189.57604491      -0.00065288      -0.00002940       0.00039778        0        0       -1       58       26 
Fe       1.37305235       1.15861522     157.02346997      -0.00140718      -0.00196443      -0.00054006        0        0       -1       58       26 
Fe      -0.03704519       1.32573566     159.01209966      -0.00036954      -0.00160820      -0.00047922        0        0       -1       58       26 
Fe       1.38285959       3.31846051     158.82745648      -0.00005191      -0.00148440       0.00024923        0        0       -1       58       26 
Fe      -0.03014947       3.48500691     160.82428621      -0.00091477      -0.00130745       0.00013520        0        0       -1       58       26 
Fe       1.38715445       5.47706034     160.65033673       0.00022796      -0.00094787       0.00083054        0        0       -1       58       26 
Fe      -0.02677971       5.64325037     162.64841856      -0.00061099      -0.00015194      -0.00030038        0        0       -1       58       26 
Fe       1.38862850       7.63628243     162.48236015      -0.00031552      -0.00008977       0.00049542        0        0       -1       58       26 
Fe      -0.02525931       7.80237350     164.47865387      -0.00064627       0.00036478       0.00029894        0        0       -1       58       26 
Fe       1.38889673       9.79635195     164.31493338      -0.00029988       0.00024375       0.00073817        0        0       -1       58       26 
Fe      -0.02465007       9.96267686     166.30953638      -0.00055097       0.00041494       0.00080837        0        0       -1       58       26 
Fe       1.38901095      11.95690858     166.14500385       0.00037118       0.00049606       0.00146097        0        0       -1       58       26 
Fe      -0.02410769      12.12357713     168.13914342       0.00024658       0.00053090       0.00084588        0        0       -1       58       26 
Fe       1.38982320      14.11759626     167.97370157       0.00036868       0.00055072       0.00048149        0        0       -1       58       26 
Fe      -0.02284195      14.28462807     169.96809974       0.00110418      -0.00009303       0.00061315        0        0       -1       58       26 
Fe       1.39159197      16.27846098     169.80269713       0.00070312      -0.00001872       0.00013551        0        0       -1       58       26 
Fe      -0.02056096      16.44562326     171.79737647       0.00049626      -0.00008108      -0.00055169        0        0       -1       58       26 
Fe       1.39420458      18.43953281     171.63229453       0.00016485      -0.00004026      -0.00056109        0        0       -1       58       26 
Fe      -0.01784643      18.60671293     173.62664376      -0.00006749      -0.00026055      -0.00091035        0        0       -1       58       26 
Fe       1.39698769      20.60079365     173.46130185      -0.00009051      -0.00023871      -0.00090821        0        0       -1       58       26 
Fe      -0.01528979      20.76783192     175.45515920      -0.00031694      -0.00016875      -0.00070178        0        0       -1       58       26 