8100
Lattice="16.98 0.0 0.0 0.0 52.18262163 0.0 0.0 0.0 103.90615549" Properties=species:S:1:pos:R:3:force:R:3:map_shift:I:3:n_neighb:I:1:Z:I:1 nneightol=1.2 virial="-178.78263735 52.05613179 74.04436713 52.05613179 -106.43697415 -0.57449875 74.04436713 -0.57449875 -191.34706775" energy=-32420.07751891 cutoff=5.3 pbc="T T T"
Fe       0.03462635       8.07521195      77.50347106      -0.00008572      -0.00007994      -0.00002131        0        0       -1       53       26 
Fe       0.02280102       2.11019342      79.55055804      -0.00015429      -0.00000045       0.00016461        0        0       -1       58       26 
Fe       1.43149819       4.10931849      79.51838534      -0.00008247       0.00001957       0.00004372        0        0       -1       58       26 
Fe      -0.05491278       4.24946727      81.50011347      -0.00010020       0.00010406       0.00011384        0        0       -1       58       26 
Fe       1.33394273       6.26307082      81.42807497      -0.00003929       0.00000274      -0.00005008        0        0       -1       58       26 
Fe      -0.12560203       6.41580452      83.38307737      -0.00013748      -0.00001054      -0.00002464        0        0       -1       58       26 
Fe       1.24968616       8.42966134      83.22307435       0.00000946      -0.00008512      -0.00006530        0        0       -1       58       26 
Fe      -0.17911206       8.57236349      85.18602043      -0.00011740       0.00008730      -0.00001669        0        0       -1       58       26 
Fe       1.20381437      10.56311129      84.95818022      -0.00010089       0.00004048      -0.00004092        0        0       -1       58       26 
Fe      -0.20669165      10.71390551      86.96542491       0.00000296      -0.00003041      -0.00001731        0        0       -1       58       26 
Fe       1.19090118      12.70385447      86.79364849      -0.00005520       0.00004396       0.00000521        0        0       -1       58       26 
Fe      -0.21499603      12.85764939      88.80076843       0.00009560      -0.00012556       0.00006722        0        0       -1       58       26 
Fe       1.19320023      14.85118630      88.65418418      -0.00002997      -0.00009826       0.00008348        0        0       -1       58       26 
Fe      -0.21388742      15.00526929      90.65409948      -0.00007984      -0.00000755       0.00003777        0        0       -1       58       26 
Fe       1.20080910      17.00178646      90.51129251      -0.00008302       0.00002287       0.00002284        0        0       -1       58       26 
Fe      -0.20963856      17.15509776      92.50537996      -0.00007273       0.00014949      -0.00000051        0        0       -1       58       26 
Fe       1.20797417      19.15215691      92.35353264       0.00001876       0.00013118       0.00002438        0        0       -1       58       26 
Fe      -0.20586877      19.30461785      94.34696780      -0.00004951      -0.00000010       0.00004742        0        0       -1       58       26 
Fe       1.21224135      21.29998953      94.18524307      -0.00003748      -0.00006043      -0.00003806        0        0       -1       58       26 
Fe      -0.20401590      21.45226227      96.18256988      -0.00004319      -0.00011116       0.00000752        0        0       -1       58       26 
Fe       1.21348400      23.44592765      96.01978612      -0.00004702      -0.00004535      -0.00005557        0        0       -1       58       26 
Fe      -0.20401604      23.59866116      98.02042069      -0.00009170      -0.00001767      -0.00015512        0        0       -1       58       26 
Fe       1.21258639      25.59206675      97.86244661      -0.00006067       0.00002077      -0.00003888        0        0       -1       58       26 
Fe      -0.20527421      25.74526781      99.86323424      -0.00012833      -0.00007032      -0.00008753        0        0       -1       58       26 
Fe       1.42389362       0.10965458      79.58931077       0.00002383      -0.00001751      -0.00003574        0        0       -1       58       26 
Fe      -0.06753017       0.24894227      81.62421265      -0.00006665      -0.00007650      -0.00002416        0        0       -1       58       26 
Fe       1.36413322       2.24536686      81.55771279      -0.00006174      -0.00003039       0.00005387        0        0       -1       58       26 
Fe      -0.10175175       2.40140822      83.56127633      -0.00012545      -0.00006442      -0.00006753        0        0       -1       58       26 
Fe       1.30994466       4.40440330      83.48058305      -0.00013197       0.00004449       0.00004027        0        0       -1       58       26 
Fe      -0.13866486       4.55967883      85.46428116      -0.00015093       0.00003890       0.00003790        0        0       -1       58       26 
Fe       1.26169725       6.56610102      85.34947351      -0.00009310       0.00002870      -0.00001649        0        0       -1       58       26 
Fe      -0.17072202       6.71805103      87.32449846      -0.00006651      -0.00003102       0.00006919        0        0       -1       58       26 
Fe       1.22783168       8.72031216      87.16264092      -0.00004323       0.00000272      -0.00014578        0        0       -1       58       26 
Fe      -0.19237536       8.87056152      89.14681461      -0.00000424      -0.00010349      -0.00006448        0        0       -1       58       26 
Fe       1.21062573      10.86543256      88.96714701      -0.00002633      -0.00004636       0.00001668        0        0       -1       58       26 
Fe      -0.20344194      11.01732792      90.96599037      -0.00002684      -0.00000810       0.00004297        0        0       -1       58       26 
Fe       1.20510298      13.01093822      90.80370228      -0.00006187      -0.00002353       0.00001102        0        0       -1       58       26 
Fe      -0.20740128      13.16405303      92.80397203      -0.00009658      -0.00005644      -0.00014399        0        0       -1       58       26 
Fe       1.20529574      15.15891494      92.65259088      -0.00006265       0.00001153       0.00002251        0        0       -1       58       26 
Fe      -0.20789673      15.31233994      94.65020738       0.00001801       0.00004953       0.00006227        0        0       -1       58       26 
Fe       1.20732639      17.30830501      94.50038268      -0.00001411      -0.00004929      -0.00006992        0        0       -1       58       26 
Fe      -0.20732696      17.46142323      96.49610703      -0.00004384      -0.00002188       0.00002214        0        0       -1       58       26 
Fe       1.20892924      19.45723797      96.34213472      -0.00005632      -0.00004713      -0.00001712        0        0       -1       58       26 
Fe      -0.20712574      19.60997475      98.33849186      -0.00010606       0.00003141       0.00007134        0        0       -1       58       26 
Fe       1.20929294      21.60478347      98.18060937      -0.00000287       0.00008503       0.00006430        0        0       -1       58       26 
Fe      -0.20767910      21.75753638     100.17912500      -0.00003654      -0.00001589       0.00002650        0        0       -1       58       26 
Fe       1.20854241      23.75153404     100.02056889      -0.00004528      -0.00007890      -0.00009628        0        0       -1       58       26 
Fe      -0.20883924      23.90439034     102.02044192      -0.00006499      -0.00007897       0.00002648        0        0       -1       58       26 
Fe       1.20714759      25.89832916     101.86323001      -0.00009943      -0.00010770      -0.00002655        0        0       -1       58       26 
Fe       1.30038267       0.40712723      83.65114851       0.00001087      -0.00008642      -0.00009024        0        0       -1       58       26 
Fe      -0.14436871       0.56531336      85.67127648      -0.00001222       0.00001336       0.00002636        0        0       -1       58       26 
Fe       1.27910007       2.55903448      85.56377204      -0.00011560       0.00005305      -0.00003252        0        0       -1       58       26 
Fe      -0.15857042       2.71582623      87.56535745      -0.00014497      -0.00004379       0.00000464        0        0       -1       58       26 
Fe       1.25418749       4.71490871      87.45134998      -0.00008918      -0.00002326       0.00004095        0        0       -1       58       26 
Fe      -0.17544010       4.86972247      89.44108781      -0.00002352       0.00001690       0.00006027        0        0       -1       58       26 
Fe       1.23303092       6.87055631      89.30605521      -0.00003305      -0.00000097       0.00002299        0        0       -1       58       26 
Fe      -0.18951175       7.02332275      91.29229415      -0.00009710      -0.00000168       0.00005776        0        0       -1       58       26 
Fe       1.21896516       9.02189123      91.13534374      -0.00012568       0.00000093      -0.00008208        0        0       -1       58       26 
Fe      -0.19894142       9.17384031      93.12649719      -0.00013592       0.00008094      -0.00001685        0        0       -1       58       26 
Fe       1.21150792      11.16955931      92.96334578      -0.00005130      -0.00002845       0.00003248        0        0       -1       58       26 
Fe      -0.20422333      11.32203554      94.95989370      -0.00004402       0.00003708      -0.00004294        0        0       -1       58       26 
Fe       1.20841171      13.31710880      94.80251348      -0.00000210       0.00010238      -0.00004582        0        0       -1       58       26 
Fe      -0.20684509      13.47017408      96.79998213       0.00000316      -0.00000707       0.00004303        0        0       -1       58       26 
Fe       1.20742141      15.46562198      96.64730334      -0.00002310       0.00006240      -0.00004495        0        0       -1       58       26 
Fe      -0.20823162      15.61879237      98.64410195      -0.00004302      -0.00004977      -0.00002685        0        0       -1       58       26 
Fe       1.20698748      17.61448159      98.49237341      -0.00007739      -0.00007557       0.00002866        0        0       -1       58       26 
Fe      -0.20938584      17.76752847     100.48905435      -0.00002178       0.00004355       0.00007649        0        0       -1       58       26 
Fe       1.20627947      19.76285656     100.33567932      -0.00011450       0.00002172       0.00002355        0        0       -1       58       26 
Fe      -0.21071048      19.91582780     102.33353938      -0.00002427       0.00010632      -0.00001531        0        0       -1       58       26 
Fe       1.20513747      21.91036445     102.17806208      -0.00004038       0.00002940      -0.00000116        0        0       -1       58       26 
Fe       1.25119195       0.72203207      87.68575213      -0.00004928      -0.00001527       0.00007522        0        0       -1       58       26 
Fe      -0.17693281       0.87766738      89.69578218      -0.00004167       0.00006726       0.00014013        0        0       -1       58       26 
Fe       1.24121860       2.87170353      89.56599485      -0.00009234      -0.00003205       0.00000744        0        0       -1       58       26 
Fe      -0.18411582       3.02688567      91.56581400      -0.00005041      -0.00009790       0.00007021        0        0       -1       58       26 
Fe       1.22970309       5.02414191      91.43286067      -0.00007666       0.00001489      -0.00000420        0        0       -1       58       26 
Fe      -0.19219280       5.17817003      93.42614748      -0.00001432      -0.00002865      -0.00001637        0        0       -1       58       26 
Fe       1.22013639       7.17620580      93.28185485      -0.00005730       0.00003060       0.00004856        0        0       -1       58       26 
Fe      -0.19889997       7.32915080      95.27363630      -0.00004780       0.00004091      -0.00008502        0        0       -1       58       26 
Fe       1.21357091       9.32616786      95.11928400      -0.00009198       0.00009471      -0.00002993        0        0       -1       58       26 
Fe      -0.20368096       9.47882479      97.11311309      -0.00002466      -0.00000559       0.00004185        0        0       -1       58       26 
Fe       1.20958941      11.47476310      96.95599100       0.00005090      -0.00000820      -0.00004729        0        0       -1       58       26 
Fe      -0.20689210      11.62753594      98.95182694       0.00004687       0.00002051      -0.00002874        0        0       -1       58       26 
Fe       1.20720799      13.62318210      98.79677656      -0.00006154      -0.00011382       0.00002298        0        0       -1       58       26 
Fe      -0.20921339      13.77611597     100.79310181      -0.00011948       0.00005461      -0.00005477        0        0       -1       58       26 
Fe       1.20545940      15.77187210     100.64070496       0.00002798       0.00003420      -0.00006910        0        0       -1       58       26 
Fe      -0.21134468      15.92499774     102.63715419       0.00000061       0.00008991      -0.00003464        0        0       -1       58       26 
Fe       1.20375142      17.92064894     102.48606990       0.00005218       0.00016407       0.00005315        0        0       -1       58       26 
Fe       1.22899839       1.03255678      91.70241463       0.00000633      -0.00003815       0.00004598        0        0       -1       58       26 
Fe      -0.19250435       1.18691659      93.70653234       0.00004824      -0.00007889      -0.00006136        0        0       -1       58       26 
Fe       1.22362507       3.18147222      93.56498747      -0.00007532      -0.00004095      -0.00003109        0        0       -1       58       26 
Fe      -0.19667915       3.33559355      95.56363340      -0.00002353       0.00002607      -0.00002918        0        0       -1       58       26 
Fe       1.21779217       5.33189223      95.42052849      -0.00001448       0.00000615      -0.00005398        0        0       -1       58       26 
Fe      -0.20103490       5.48547254      97.41568351      -0.00005495       0.00003992      -0.00014021        0        0       -1       58       26 
Fe       1.21290628       7.48220754      97.26692414      -0.00009594      -0.00005830      -0.00008373        0        0       -1       58       26 
Fe      -0.20478822       7.63523119      99.26124503       0.00002367      -0.00003761      -0.00003259        0        0       -1       58       26 
Fe       1.20921117       9.63156626      99.10763623      -0.00003295      -0.00005755       0.00000625        0        0       -1       58       26 
Fe      -0.20781468       9.78436528     101.10262500      -0.00003229      -0.00002495      -0.00006629        0        0       -1       58       26 
Fe       1.20642290      11.78031474     100.94748312      -0.00003546       0.00005400      -0.00002324        0        0       -1       58       26 
Fe      -0.21044280      11.93315378     102.94296776      -0.00014548      -0.00002209      -0.00008333        0        0       -1       58       26 
Fe       1.20396814      13.92909965     102.78902969      -0.00000523       0.00003368       0.00005419        0        0       -1       58       26 
Fe       1.21760465       1.34087141      95.70880330      -0.00004508       0.00004768      -0.00006373        0        0       -1       58       26 
Fe      -0.20123953       1.49457323      97.70971888       0.00005009       0.00001335      -0.00010662        0        0       -1       58       26 
Fe       1.21427046       3.48943988      97.56185871      -0.00000973      -0.00003082       0.00004217        0        0       -1       58       26 
Fe      -0.20396921       3.64301411      99.55974884      -0.00001786       0.00000660      -0.00003148        0        0       -1       58       26 
Fe       1.21087946       5.63885439      99.41135178       0.00000342      -0.00005497      -0.00014297        0        0       -1       58       26 
Fe      -0.20670259       5.79214488     101.40737195      -0.00000561      -0.00004233      -0.00006870        0        0       -1       58       26 
Fe       1.20786299       7.78824593     101.25626487       0.00003327       0.00001060       0.00001561        0        0       -1       58       26 
Fe      -0.20920315       7.94123896     103.25179063       0.00000211       0.00000785       0.00001705        0        0       -1       58       26 
Fe       1.20522156       9.93719697     103.09790462       0.00002135      -0.00006539      -0.00009688        0        0       -1       58       26 
Fe       1.21060887       1.64807382      99.70960192      -0.00005185      -0.00011901      -0.00010129        0        0       -1       58       26 
Fe      -0.20708131       1.80137525     101.70870055      -0.00005518      -0.00009606      -0.00004677        0        0       -1       58       26 
Fe       1.20834063       3.79643062     101.55734093      -0.00006932       0.00001677       0.00003029        0        0       -1       58       26 
Fe      -0.20892201       3.94968082     103.55465017      -0.00006536       0.00000494      -0.00000595        0        0       -1       58       26 
Fe       1.20612212       5.94534044     103.40364186       0.00000778      -0.00005619      -0.00005579        0        0       -1       58       26 
Fe       1.20559645       1.95450047     103.70715567       0.00006596      -0.00000740      -0.00005226        0        0       -1       58       26 
Fe      -0.01174849       6.10572179      79.47547806       0.00002769       0.00008869       0.00002804        0        0       -1       57       26 
Fe       1.34031926       8.10254457      79.40623055       0.00013324       0.00010575      -0.00005660        0        0       -1       56       26 
Fe      -0.13847238       8.29322745      81.28657269       0.00004358       0.00004194      -0.00006391        0        0       -1       57       26 
Fe       1.17513597      10.26644727      80.89950701       0.00003464       0.00000261       0.00001491        0        0       -1       57       26 
Fe      -0.21980542      10.41460825      82.94029134       0.00002599      -0.00011894       0.00001016        0        0       -1       58       26 
Fe       1.15001891      12.39436085      82.75564945       0.00004958      -0.00004947      -0.00004820        0        0       -1       58       26 
Fe      -0.23939835      12.54941551      84.77992735      -0.00004128       0.00003363       0.00002123        0        0       -1       58       26 
Fe       1.15659447      14.53983971      84.64676595      -0.00000455       0.00003221      -0.00001693        0        0       -1       58       26 
Fe      -0.23557020      14.69619640      86.65208928      -0.00001796      -0.00007726      -0.00001564        0        0       -1       58       26 
Fe       1.17677347      16.69361431      86.52669202       0.00003096      -0.00000165       0.00009086        0        0       -1       58       26 
Fe      -0.22287552      16.84809991      88.51831489       0.00002514      -0.00003222       0.00003242        0        0       -1       58       26 
Fe       1.19769968      18.84803447      88.37563332      -0.00001776      -0.00004135      -0.00006364        0        0       -1       58       26 
Fe      -0.21036219      18.99999606      90.36266730       0.00000891      -0.00001353      -0.00000748        0        0       -1       58       26 
Fe       1.21218908      20.99691944      90.19491575      -0.00009795       0.00006356      -0.00010879        0        0       -1       58       26 
Fe      -0.20220651      21.14809591      92.18908353      -0.00011295       0.00014155      -0.00010489        0        0       -1       58       26 
Fe       1.21881547      23.14091685      92.01578130      -0.00009129       0.00003695      -0.00004515        0        0       -1       58       26 
Fe      -0.19893106      23.29331513      94.01837660      -0.00009784      -0.00002100      -0.00009278        0        0       -1       58       26 
Fe       1.21976567      25.28548850      93.85708621      -0.00009251       0.00003406       0.00000911        0        0       -1       58       26 
Fe      -0.19914069      25.43882066      95.86055046      -0.00004241       0.00007248       0.00000480        0        0       -1       58       26 
Fe      -0.32942420      10.14233137      78.80042644       0.00001019       0.00002707       0.00000685        0        0       -1       59       26 
Fe       1.01051576      12.11969216      78.64594771       0.00000871       0.00005434      -0.00008988        0        0       -1       59       26 
Fe      -0.31038026      12.24229589      80.71498572       0.00004571       0.00001211       0.00006528        0        0       -1       59       26 
Fe       1.06035247      14.22685361      80.61826783       0.00000899      -0.00006105      -0.00001311        0        0       -1       58       26 
Fe      -0.29529820      14.38131170      82.63649707      -0.00000814      -0.00001330      -0.00005985        0        0       -1       58       26 
Fe       1.10890352      16.37735137      82.54749262       0.00001184       0.00000412       0.00005105        0        0       -1       58       26 
Fe      -0.26405581      16.53766328      84.53654318      -0.00000972      -0.00006717       0.00002977        0        0       -1       58       26 
Fe       1.16168369      18.54382570      84.42011304      -0.00002506      -0.00007749      -0.00003040        0        0       -1       58       26 
Fe      -0.23025727      18.69607619      86.39410735      -0.00009453      -0.00005700      -0.00000295        0        0       -1       58       26 
Fe       1.20339344      20.69821886      86.22059314      -0.00011483      -0.00010421      -0.00001324        0        0       -1       58       26 
Fe      -0.20543995      20.84676275      88.20438799      -0.00007421       0.00006899      -0.00006978        0        0       -1       58       26 
Fe       1.22503797      22.83728724      88.00368479       0.00004711       0.00003164       0.00001692        0        0       -1       58       26 
Fe      -0.19323033      22.98888477      90.01130744      -0.00002722       0.00013479       0.00010716        0        0       -1       58       26 
Fe       1.23104913      24.97830424      89.84237116       0.00002323       0.00007791      -0.00008364        0        0       -1       58       26 
Fe      -0.19036418      25.13200042      91.85136648      -0.00002118      -0.00007024      -0.00002998        0        0       -1       58       26 
Fe      -0.44987625      14.11593917      78.58942596       0.00012906       0.00003387      -0.00005900        0        0       -1       58       26 
Fe       0.94511100      16.11582873      78.55790485      -0.00001308       0.00003863       0.00010207        0        0       -1       58       26 
Fe      -0.37182513      16.21678906      80.55633034       0.00004524       0.00005552       0.00005181        0        0       -1       58       26 
Fe       1.05494908      18.20887257      80.49611981       0.00001898      -0.00001795       0.00005393        0        0       -1       58       26 
Fe      -0.29333110      18.38495011      82.45639275       0.00005157       0.00002268       0.00000761        0        0       -1       58       26 
Fe       1.16496790      20.40912979      82.30355135       0.00002235       0.00005725      -0.00006803        0        0       -1       57       26 
Fe      -0.22424240      20.55253093      84.24958435      -0.00014744      -0.00003922      -0.00001643        0        0       -1       58       26 
Fe       1.23465657      22.53502927      83.96757835       0.00002769      -0.00009835      -0.00009061        0        0       -1       58       26 
Fe      -0.18608884      22.68601913      85.99063009       0.00002967      -0.00009036       0.00008133        0        0       -1       58       26 
Fe       1.25278412      24.66946258      85.80761246       0.00003249      -0.00009652      -0.00011618        0        0       -1       58       26 
Fe      -0.17507177      24.82425965      87.82852493       0.00012451       0.00000960      -0.00006671        0        0       -1       58       26 
Fe      -0.46513669      18.11871947      78.53191853      -0.00002174       0.00007726      -0.00010932        0        0       -1       56       26 
Fe       1.00211055      20.13235479      78.50801350       0.00005227       0.00014780      -0.00006088        0        0       -1       54       26 
Fe      -0.30923760      20.20497267      80.41427413       0.00002533      -0.00013688      -0.00000854        0        0       -1       56       26 
Fe       1.31250713      22.22532925      79.82696529      -0.00001506      -0.00006933       0.00006936        0        0       -1       58       26 
Fe      -0.16709763      22.37877519      81.92321075       0.00010787      -0.00001756      -0.00008793        0        0       -1       57       26 
Fe       1.30842863      24.35347357      81.72896676       0.00013059      -0.00003719      -0.00001925        0        0       -1       58       26 
Fe      -0.14205182      24.51299503      83.77606876       0.00006670      -0.00007655      -0.00000971        0        0       -1       58       26 
Fe      13.93636021      50.30147627       2.11396633      -0.00014204      -0.00008695       0.00000383       -1       -1        0       58       26 
Fe      15.35014912      48.30775375       2.27130248      -0.00003405      -0.00009859       0.00008082       -1       -1        0       58       26 
Fe      -0.03084884      24.20380348      79.65633438       0.00003588      -0.00007313      -0.00001845        0        0       -1       59       26 
Fe      -0.21021904      -0.04003021     103.86262971      -0.00006608       0.00001349      -0.00007491        0        0       -1       58       26 
Fe       0.83876025      10.12233124      76.53153245      -0.00006824      -0.00006571       0.00000870        0        0       -1       56       26 
Fe       2.24844496      12.08544658      76.54316746       0.00004364      -0.00007679      -0.00012288        0        0       -1       59       26 
Fe       0.65710552      12.15645540      74.44104830       0.00003605       0.00008374      -0.00000620        0        0       -1       59       26 
Fe       2.10982278      14.15214042      74.51011410       0.00013553       0.00005501      -0.00002684        0        0       -1       58       26 
Fe       0.61177490      14.29837548      72.48619330       0.00015287      -0.00000070       0.00007869        0        0       -1       58       26 
Fe       2.03571605      16.29849730      72.56162996      -0.00000415       0.00001292       0.00008795        0        0       -1       58       26 
Fe       0.56749633      16.45799884      70.57104521       0.00011215       0.00003547       0.00005484        0        0       -1       58       26 
Fe       1.96850450      18.46619637      70.67825515      -0.00000854      -0.00002696       0.00004637        0        0       -1       58       26 
Fe       0.52435100      18.61764261      68.70403525       0.00015716      -0.00004142       0.00002630        0        0       -1       58       26 
Fe       1.91645488      20.62092488      68.87186778       0.00005430      -0.00006017       0.00001500        0        0       -1       58       26 
Fe       0.49292269      20.76878187      66.88807884       0.00003515       0.00014677      -0.00005252        0        0       -1       58       26 
Fe       1.88888009      22.75966995      67.08503252      -0.00001730       0.00009520       0.00012386        0        0       -1       58       26 
Fe       0.47692864      22.91122734      65.07676908      -0.00008634       0.00006452       0.00004689        0        0       -1       58       26 
Fe       1.88027419      24.90095887      65.24092058       0.00007096      -0.00000752      -0.00013885        0        0       -1       58       26 
Fe       0.47238499      25.05482315      63.23189570       0.00012925       0.00000709      -0.00001223        0        0       -1       58       26 
Fe       1.88175187       0.95590502      63.37588317       0.00013821       0.00001654       0.00001836        0        0       -1       58       26 
Fe       0.47422538       1.11038584      61.37250740       0.00006292      -0.00007014       0.00000090        0        0       -1       58       26 
Fe       1.88764822       3.10566386      61.51019386       0.00000787      -0.00004088      -0.00003379        0        0       -1       58       26 
Fe       0.47877160       3.25983462      59.51284131      -0.00000823      -0.00002235      -0.00002213        0        0       -1       58       26 
Fe       1.89432746       5.25689239      59.65428616       0.00004231       0.00007663      -0.00002840        0        0       -1       58       26 
Fe       0.48368213       5.41021648      57.66071583       0.00010995       0.00001779      -0.00000146        0        0       -1       58       26 
Fe       1.89999937       7.40746889      57.81079288       0.00000325      -0.00007710       0.00010655        0        0       -1       58       26 
Fe       0.48789575       7.56000376      55.81771991       0.00011583       0.00008892      -0.00000926        0        0       -1       58       26 
Fe       1.69407288       8.08630477      75.58856748      -0.00006567       0.00000561       0.00010286        0        0       -1       53       26 
Fe       0.37607341       8.15867986      73.68943634      -0.00000114       0.00000232      -0.00011565        0        0       -1       56       26 