16272
Lattice="16.98 0.0 0.0 0.0 73.79737123 0.0 0.0 0.0 147.42010777" Properties=species:S:1:pos:R:3:force:R:3:map_shift:I:3:n_neighb:I:1:Z:I:1 nneightol=1.2 virial="-58.97501666 -0.06436692 0.00110191 -0.06436692 -205.34121869 0.01260121 0.00110191 0.01260121 -269.78548094" energy=-65187.87647295 cutoff=5.3 pbc="T T T"
Fe      13.98642912      59.48114603       4.45059380       0.00039158      -0.00028648       0.00000581       -1       -1        0       58       26 
Fe      -0.14644612       2.96039903     110.51445666       0.00001268       0.00004646       0.00002442        0        0       -1       56       26 
Fe      -0.14695764       5.74973006     110.80338033       0.00003875       0.00001137      -0.00001644        0        0       -1       56       26 
Fe      -0.14719367       8.61320641     111.08453896       0.00009314      -0.00006306      -0.00009311        0        0       -1       59       26 
Fe      -0.14715147      11.53595608     111.33480582       0.00016569      -0.00000652      -0.00008426        0        0       -1       58       26 
Fe      -0.14719505      14.42198909     111.50271832       0.00004995      -0.00005520      -0.00004328        0        0       -1       58       26 
Fe      -0.14732717      17.23529031     111.63501770       0.00000615      -0.00000568      -0.00003647        0        0       -1       58       26 
Fe      15.40193712      57.96116872       5.75398803       0.00039633      -0.00028385      -0.00005723       -1       -1        0       58       26 
Fe      -0.14759521      19.95433289     111.83885597       0.00010696      -0.00006926      -0.00003057        0        0       -1       58       26 
Fe       1.26854789      21.40973894     110.51446164       0.00003777       0.00004696      -0.00000302        0        0       -1       56       26 
Fe      -0.14801622      22.70899630     112.08964741       0.00001464       0.00003788      -0.00005739        0        0       -1       58       26 
Fe       1.26803895      24.19906386     110.80337505       0.00003430       0.00003294      -0.00000510        0        0       -1       56       26 
Fe      -0.14830474      25.53734271     112.33841556      -0.00006311      -0.00002212      -0.00003849        0        0       -1       58       26 
Fe       1.26780914      27.06254383     111.08453939       0.00006290      -0.00007130      -0.00009401        0        0       -1       59       26 
Fe      -0.14846874      28.41706691     112.58255104       0.00011783      -0.00005219      -0.00009238        0        0       -1       58       26 
Fe       1.26785408      29.98530182     111.33481029       0.00012393       0.00000787      -0.00007242        0        0       -1       58       26 
Fe      -0.14854354      31.31179410     112.80331216       0.00017482      -0.00007494      -0.00003129        0        0       -1       58       26 
Fe       1.26780489      32.87133006     111.50272216       0.00005772      -0.00006013      -0.00005734        0        0       -1       58       26 
Fe      -0.14865754      34.15981447     112.98746916       0.00005105      -0.00010131       0.00001788        0        0       -1       58       26 
Fe       1.26767072      35.68462890     111.63501366       0.00002929      -0.00000182      -0.00003474        0        0       -1       58       26 
Fe      -0.14879095      36.92654889     113.18061323       0.00003637      -0.00001795      -0.00004735        0       -1       -1       58       26 
Fe       1.26740970       1.50498870     111.83885083       0.00010121      -0.00004859      -0.00004364        0        0       -1       58       26 
Fe      -0.14911515       2.78112099     113.39951154       0.00017271      -0.00005468      -0.00009177        0        0       -1       58       26 
Fe       1.26698839       4.25965762     112.08964271       0.00001833       0.00003821      -0.00005556        0        0       -1       58       26 
Fe      -0.14944414       5.58419533     113.62548823      -0.00002473      -0.00008366      -0.00003375        0        0       -1       58       26 
Fe       1.26669562       7.08800492     112.33841750      -0.00006514      -0.00002613      -0.00004551        0        0       -1       58       26 
Fe      -0.14965177       8.43061071     113.85326965       0.00000293      -0.00004879      -0.00005570        0        0       -1       58       26 
Fe       1.26653100       9.96772662     112.58255450       0.00011083      -0.00004412      -0.00010795        0        0       -1       58       26 
Fe      -0.14981325      11.30190235     114.07993042       0.00012333      -0.00015072      -0.00004109        0        0       -1       58       26 
Fe       1.26645597      12.86245101     112.80330981       0.00017952      -0.00006190      -0.00001877        0        0       -1       58       26 
Fe      -0.14994504      14.16318178     114.29852136       0.00027105      -0.00016057       0.00008879        0        0       -1       58       26 
Fe       1.26634281      15.71047373     112.98746985       0.00005998      -0.00008564       0.00002326        0        0       -1       58       26 
Fe      -0.15005246      16.97280966     114.51078996       0.00000402      -0.00012457      -0.00005274        0        0       -1       58       26 
Fe       1.26620732      18.47720862     113.18062011       0.00003785      -0.00002387      -0.00008376        0        0       -1       58       26 
Fe      -0.15027440      19.74748337     114.72247606       0.00010448      -0.00003527      -0.00000310        0        0       -1       58       26 
Fe       1.26587911      21.23045855     113.39951862       0.00017353      -0.00002634      -0.00009546        0        0       -1       58       26 
Fe      -0.15056233      22.53914827     114.93259912       0.00012845      -0.00011871      -0.00005594        0        0       -1       58       26 
Fe       1.26554844      24.03353520     113.62549049      -0.00000727      -0.00008496      -0.00003258        0        0       -1       58       26 
Fe      -0.15080126      25.36302578     115.14596416       0.00012157      -0.00007786      -0.00001928        0        0       -1       58       26 
Fe       1.26534241      26.87995032     113.85326834       0.00001866      -0.00006709      -0.00007249        0        0       -1       58       26 
Fe      -0.15099483      28.21064569     115.36474941       0.00005719      -0.00011607       0.00001700        0        0       -1       58       26 
Fe       1.26518571      29.75123842     114.07992853       0.00013472      -0.00012758      -0.00003888        0        0       -1       58       26 
Fe      -0.15116838      31.06296755     115.58940270       0.00014986      -0.00022077       0.00005703        0        0       -1       58       26 
Fe       1.26505665      32.61252215     114.29852348       0.00028210      -0.00014381       0.00008724        0        0       -1       58       26 
Fe      -0.15130844      33.89401698     115.81776599       0.00026163      -0.00004402       0.00001058        0        0       -1       58       26 
Fe       1.26495005      35.42215122     114.51078793       0.00000506      -0.00012548      -0.00005599        0        0       -1       58       26 
Fe      16.82856815      36.69646695     116.03973977       0.00002722      -0.00018916      -0.00001811       -1        0       -1       58       26 
Fe       1.26472946       1.29814114     114.72246423       0.00010288      -0.00002663       0.00000738        0        0       -1       58       26 
Fe      -0.15167705       2.59503231     116.24860439       0.00014019      -0.00015939      -0.00002678        0        0       -1       58       26 
Fe       1.26444343       4.08980654     114.93259689       0.00012718      -0.00011732      -0.00003027        0        0       -1       58       26 
Fe      -0.15192291       5.40717558     116.45297552       0.00023913      -0.00010199      -0.00008626        0        0       -1       58       26 
Fe       1.26420456       6.91368602     115.14596678       0.00012669      -0.00008929      -0.00003238        0        0       -1       58       26 
Fe      -0.15213625       8.23723977     116.66243675       0.00017620      -0.00016675      -0.00000297        0        0       -1       58       26 
Fe       1.26400964       9.76130552     115.36474943       0.00006307      -0.00013500      -0.00000678        0        0       -1       58       26 
Fe      -0.15232305      11.07606000     116.88181862       0.00009492      -0.00020765       0.00009619        0        0       -1       58       26 
Fe       1.26383301      12.61363074     115.58940533       0.00015278      -0.00022737       0.00005149        0        0       -1       58       26 
Fe      -0.15248910      13.90934430     117.11176050       0.00025674      -0.00009737      -0.00002703        0        0       -1       58       26 
Fe       1.26368619      15.44467787     115.81776447       0.00027249      -0.00005399       0.00004039        0        0       -1       58       26 
Fe      -0.15261567      16.72889512     117.34304745       0.00022442      -0.00007152       0.00003475        0        0       -1       58       26 
Fe       1.26355576      18.24712119     116.03974821       0.00005595      -0.00016605      -0.00003942        0        0       -1       58       26 
Fe      -0.15279963      19.53975779     117.56120497       0.00013379      -0.00015174      -0.00004995        0        0       -1       58       26 
Fe       1.26331442      21.04437584     116.24860818       0.00014217      -0.00016301      -0.00001950        0        0       -1       58       26 
Fe      -0.15304170      22.35192361     117.76628182       0.00026925      -0.00010350      -0.00002240        0        0       -1       58       26 
Fe       1.26307555      23.85651821     116.45297749       0.00022103      -0.00010163      -0.00006607        0        0       -1       58       26 
Fe      -0.15325551      25.17226250     117.96998492       0.00019068      -0.00016352      -0.00000646        0        0       -1       58       26 
Fe       1.26285767      26.68657922     116.66243464       0.00020039      -0.00016293      -0.00000842        0        0       -1       58       26 
Fe      -0.15343942      27.99981565     118.18195062       0.00015332      -0.00016756      -0.00001619        0        0       -1       58       26 
Fe       1.26266920      29.52539940     116.88182077       0.00011226      -0.00021081       0.00008459        0        0       -1       58       26 
Fe      -0.15359664      30.82804948     118.40613254       0.00015596      -0.00012909       0.00001824        0        0       -1       58       26 
Fe       1.26251107      32.35868541     117.11175825       0.00025185      -0.00012281      -0.00001839        0        0       -1       58       26 
Fe      -0.15375062      33.65224815     118.63794497       0.00023375      -0.00005426      -0.00005026        0        0       -1       58       26 
Fe       1.26239389      35.17823632     117.34304643       0.00020421      -0.00005590       0.00001950        0        0       -1       58       26 
Fe      -0.15390270      36.47287296     118.86444290       0.00013018      -0.00003265       0.00003144        0        0       -1       58       26 
Fe       1.26221095       1.09041063     117.56119856       0.00010548      -0.00012116      -0.00003880        0        0       -1       58       26 
Fe      -0.15411140       2.39277536     119.07738291       0.00026481      -0.00009727       0.00001450        0        0       -1       58       26 
Fe       1.26196250       3.90257877     117.76628011       0.00025783      -0.00012229      -0.00001297        0        0       -1       58       26 
Fe      -0.15431924       5.21160223     119.28193212       0.00028408      -0.00015838      -0.00003332        0        0       -1       58       26 
Fe       1.26175008       6.72292273     117.96998439       0.00018680      -0.00014869      -0.00000816        0        0       -1       58       26 
Fe      -0.15450199       8.03270950     119.48901087       0.00022155      -0.00010614       0.00001007        0        0       -1       58       26 
Fe       1.26156874       9.55047345     118.18195252       0.00014597      -0.00018363      -0.00002521        0        0       -1       58       26 
Fe      -0.15466709      10.85521469     119.70605739       0.00013705      -0.00019258       0.00003636        0        0       -1       58       26 
Fe       1.26140640      12.37870471     118.40613173       0.00014409      -0.00013647       0.00002481        0        0       -1       58       26 
Fe      -0.15481416      13.67785490     119.93290158       0.00014855      -0.00007040       0.00002531        0        0       -1       58       26 
Fe       1.26124482      15.20290899     118.63794334       0.00023047      -0.00005802      -0.00003894        0        0       -1       58       26 
Fe      -0.15498477      16.50134515     120.16140906       0.00021181      -0.00009114       0.00000464        0        0       -1       58       26 
Fe       1.26108961      18.02353240     118.86444934       0.00012112      -0.00002623       0.00000380        0        0       -1       58       26 
Fe      -0.15515913      19.32516147     120.38190878       0.00022201      -0.00012485      -0.00003292        0        0       -1       58       26 
Fe       1.26088676      20.84212104     119.07738716       0.00022824      -0.00008677       0.00002532        0        0       -1       58       26 
Fe      -0.15535292      22.14717831     120.59235405       0.00026375      -0.00003157       0.00004238        0        0       -1       58       26 
Fe       1.26067795      23.66094580     119.28193631       0.00026767      -0.00017478      -0.00005766        0        0       -1       58       26 
Fe      -0.15553236      24.96724501     120.79936343       0.00028127      -0.00010638      -0.00004586        0        0       -1       58       26 
Fe       1.26049178      26.48205249     119.48900592       0.00020970      -0.00012545       0.00003329        0        0       -1       58       26 
Fe      -0.15571037      27.78639093     121.01139986       0.00031708      -0.00015703       0.00011466        0        0       -1       58       26 
Fe       1.26032721      29.30455704     119.70605736       0.00014559      -0.00017997       0.00002348        0        0       -1       58       26 
Fe      -0.15585141      30.60606676     121.23204392       0.00016643      -0.00008834      -0.00001022        0        0       -1       58       26 
Fe       1.26018417      32.12719825     119.93290421       0.00015496      -0.00009092       0.00002139        0        0       -1       58       26 
Fe      -0.15600450      33.42829750     121.45778289       0.00022633      -0.00011875       0.00007164        0        0       -1       58       26 
Fe       1.26002279      34.95068710     120.16140779       0.00018441      -0.00006698       0.00001854        0        0       -1       58       26 
Fe      -0.15615699      36.25336472     121.68142294       0.00021413      -0.00016772       0.00000899        0        0       -1       58       26 
Fe       1.25984664       0.87581484     120.38190273       0.00023919      -0.00010988      -0.00002894        0        0       -1       58       26 
Fe      -0.15633730       2.17979460     121.89808140       0.00023372      -0.00016452      -0.00008244        0        0       -1       58       26 
Fe       1.25964895       3.69783520     120.59235189       0.00028996      -0.00003452       0.00004705        0        0       -1       58       26 
Fe      -0.15650831       5.00198189     122.10879679       0.00017517      -0.00004822       0.00007494        0        0       -1       58       26 
Fe       1.25947214       6.51790253     120.79936496       0.00026998      -0.00012337      -0.00005391        0        0       -1       58       26 
Fe      -0.15668374       7.82104447     122.31963307       0.00026897      -0.00009450      -0.00004371        0        0       -1       58       26 
Fe       1.25929481       9.33704728     121.01140382       0.00030029      -0.00014602       0.00008909        0        0       -1       58       26 
Fe      -0.15684173      10.63897259     122.53558863       0.00020887      -0.00010535      -0.00007603        0        0       -1       58       26 
Fe       1.25915089      12.15672652     121.23204164       0.00016910      -0.00011991      -0.00000142        0        0       -1       58       26 
Fe      -0.15699355      13.45889711     122.75691179       0.00024051      -0.00011743       0.00002270        0        0       -1       58       26 
Fe       1.25899197      14.97895198     121.45777850       0.00023212      -0.00010566       0.00008361        0        0       -1       58       26 
Fe      -0.15713576      16.28251176     122.97981347       0.00024203      -0.00013380       0.00007159        0        0       -1       58       26 
Fe       1.25884021      17.80401999     121.68142190       0.00021112      -0.00015307       0.00004124        0        0       -1       58       26 
Fe      -0.15728216      19.10825020     123.19978703       0.00026654      -0.00015591       0.00000172        0        0       -1       58       26 
Fe       1.25865860      20.62913967     121.89808464       0.00026092      -0.00015248      -0.00005493        0        0       -1       58       26 
Fe      -0.15745363      21.93276389     123.41502144       0.00018810      -0.00020875      -0.00002496        0        0       -1       58       26 
Fe       1.25848389      23.45132425     122.10880349       0.00019287      -0.00004311       0.00003725        0        0       -1       58       26 
Fe      -0.15762141      24.75370993     123.62761762       0.00021115       0.00000012      -0.00000361        0        0       -1       58       26 
Fe       1.25830959      26.27038876     122.31962799       0.00026892      -0.00009499      -0.00002079        0        0       -1       58       26 
Fe      -0.15778114      27.57198148     123.84173666       0.00020647      -0.00015180      -0.00007401        0        0       -1       58       26 
Fe       1.25815575      29.08831173     122.53558788       0.00019679      -0.00010142      -0.00009047        0        0       -1       58       26 
Fe      -0.15792625      30.39051071     124.05941456       0.00023627      -0.00018957      -0.00006366        0        0       -1       58       26 
Fe       1.25801119      31.90824307     122.75691333       0.00021076      -0.00013018       0.00000469        0        0       -1       58       26 
Fe      -0.15806650      33.21190383     124.27972477       0.00025739      -0.00016982       0.00004241        0        0       -1       58       26 
Fe       1.25786770      34.73186038     122.97981419       0.00025740      -0.00015780       0.00010002        0        0       -1       58       26 
Fe      -0.15818348      36.03637777     124.50009953       0.00019427      -0.00014392      -0.00001742        0        0       -1       58       26 
Fe       1.25772076       0.65890847     123.19978767       0.00028712      -0.00014260       0.00002276        0        0       -1       58       26 
Fe      -0.15834277       1.96286592     124.71813267       0.00025932      -0.00021751      -0.00000877        0        0       -1       58       26 
Fe       1.25755670       3.48342071     123.41501735       0.00018397      -0.00019812      -0.00004224        0        0       -1       58       26 
Fe      -0.15849670       4.78586309     124.93356894       0.00019129      -0.00007848      -0.00005551        0        0       -1       58       26 
Fe       1.25738859       6.30436389     123.62761788       0.00022012      -0.00000805      -0.00001278        0        0       -1       58       26 
Fe      -0.15865350       7.60579777     125.14818029       0.00018440      -0.00010875       0.00003133        0        0       -1       58       26 
Fe       1.25722333       9.12264134     123.84173810       0.00020290      -0.00014422      -0.00005570        0        0       -1       58       26 
Fe      -0.15880730      10.42444042     125.36410804       0.00023711      -0.00013609      -0.00002526        0        0       -1       58       26 
Fe       1.25707549      11.94117078     124.05941866       0.00021742      -0.00019864      -0.00010393        0        0       -1       58       26 
Fe      -0.15894744      13.24437906     125.58200084       0.00024386      -0.00017228      -0.00000725        0        0       -1       58       26 
Fe       1.25693425      14.76255531     124.27972325       0.00025691      -0.00017867       0.00005455        0        0       -1       58       26 
Fe      -0.15905063      16.06690156     125.80104539       0.00013046      -0.00013375       0.00001950        0        0       -1       58       26 
Fe       1.25681154      17.58703133     124.50009841       0.00021522      -0.00012760      -0.00001780        0        0       -1       58       26 
Fe      -0.15919741      18.89129357     126.01984851       0.00026880      -0.00016430      -0.00002025        0        0       -1       58       26 
Fe       1.25664382      20.41220912     124.71813176       0.00027751      -0.00022231      -0.00000525        0        0       -1       58       26 
Fe      -0.15935794      21.71521788     126.23731120       0.00025379      -0.00003737      -0.00011532        0        0       -1       58       26 
Fe       1.25649049      23.23520974     124.93357343       0.00020518      -0.00010771      -0.00006994        0        0       -1       58       26 
Fe      16.82050644      24.53693555     126.45348232       0.00022753      -0.00015052       0.00000098       -1        0       -1       58       26 
Fe       1.25633929      26.05513934     125.14817825       0.00019693      -0.00011046       0.00004606        0        0       -1       58       26 
Fe      -0.15963078      27.35673065     126.66936215       0.00028103      -0.00017446       0.00004516        0        0       -1       58       26 
Fe       1.25619170      28.87378503     125.36410725       0.00023079      -0.00013144      -0.00003502        0        0       -1       58       26 
Fe      -0.15977531      30.17637904     126.88594116       0.00029628      -0.00010912       0.00004259        0        0       -1       58       26 
Fe       1.25604992      31.69372037     125.58199858       0.00026600      -0.00016550      -0.00002055        0        0       -1       58       26 
Fe      -0.15988955      32.99750545     127.10353017       0.00019368      -0.00016136      -0.00000917        0        0       -1       58       26 
Fe       1.25594657      34.51624622     125.80104840       0.00015092      -0.00014496       0.00000680        0        0       -1       58       26 
Fe      -0.15999626      35.82045603     127.32170387       0.00019720      -0.00006875      -0.00004784        0        0       -1       58       26 
Fe       1.25581187       0.44195262     126.01985138       0.00024111      -0.00015571      -0.00002723        0        0       -1       58       26 
Fe      -0.16013766       1.74545301     127.53983411       0.00027342      -0.00012010      -0.00000739        0        0       -1       58       26 
Fe       1.25565638       3.26587874     126.23730855       0.00023555      -0.00006925      -0.00008913        0        0       -1       58       26 
Fe      -0.16026206       4.56819404     127.75733010       0.00027176      -0.00013066       0.00003186        0        0       -1       58       26 
Fe       1.25551592       6.08759073     126.45347944       0.00022595      -0.00016046       0.00000158        0        0       -1       58       26 
Fe      -0.16038531       7.38932489     127.97405337       0.00022112      -0.00019569       0.00000961        0        0       -1       58       26 
Fe       1.25537419       8.90738533     126.66936378       0.00028312      -0.00016293       0.00005158        0        0       -1       58       26 
Fe      -0.16053430      10.20957055     128.19049173       0.00032421      -0.00021062       0.00003935        0        0       -1       58       26 
Fe       1.25522612      11.72703685     126.88594315       0.00031302      -0.00008752       0.00002961        0        0       -1       58       26 
Fe      -0.16066296      13.03018714     128.40719435       0.00023413      -0.00019898       0.00005558        0        0       -1       58       26 
Fe       1.25511005      14.54816486     127.10352918       0.00020135      -0.00016458       0.00000875        0        0       -1       58       26 
Fe      -0.16077410      15.85198361     128.62449329       0.00019964      -0.00013578      -0.00010008        0        0       -1       58       26 
Fe       1.25500070      17.37111276     127.32169926       0.00018566      -0.00005364      -0.00003480        0        0       -1       58       26 
Fe      -0.16089365      18.67478820     128.84228162       0.00030173      -0.00022385       0.00001465        0        0       -1       58       26 
Fe       1.25485179      20.19478828     127.53983529       0.00027752      -0.00012482      -0.00000143        0        0       -1       58       26 
Fe      -0.16100846      21.49763428     129.06025813       0.00026725      -0.00013361      -0.00002792        0        0       -1       58       26 
Fe       1.25472477      23.01753486     127.75733253       0.00027080      -0.00013774       0.00001631        0        0       -1       58       26 
Fe      -0.16111365      24.31966173     129.27783359       0.00021429      -0.00019597       0.00001850        0        0       -1       58       26 
Fe       1.25460931      25.83866922     127.97405478       0.00020513      -0.00019313       0.00000873        0        0       -1       58       26 
Fe      -0.16122208      27.14076244     129.49477227       0.00014057      -0.00022233       0.00001552        0        0       -1       58       26 
Fe       1.25446438      28.65891376     128.19048996       0.00034832      -0.00020117       0.00003416        0        0       -1       58       26 
Fe      -0.16136832      29.96159149     129.71136049       0.00026425      -0.00027554       0.00007294        0        0       -1       58       26 
Fe       1.25433409      31.47952452     128.40719318       0.00025793      -0.00018076       0.00005588        0        0       -1       58       26 
Fe      -0.16149216      32.78284336     129.92808315       0.00030957      -0.00022069      -0.00001409        0        0       -1       58       26 
Fe       1.25422642      34.30132176     128.62449523       0.00018248      -0.00011767      -0.00009806        0        0       -1       58       26 
Fe      16.81840432      35.60484694     130.14529346       0.00021217      -0.00026150      -0.00001016       -1        0       -1       58       26 
Fe       1.25411184       0.22544637     128.84228016       0.00030343      -0.00018829       0.00001923        0        0       -1       58       26 
Fe      -0.16169698       1.52854423     130.36303724       0.00031926      -0.00017623      -0.00006564        0        0       -1       58       26 
Fe       1.25400012       3.04829676     129.06025918       0.00027224      -0.00014495      -0.00002269        0        0       -1       58       26 
Fe      -0.16178803       4.35081590     130.58096435       0.00028837      -0.00016376      -0.00006095        0        0       -1       58       26 
Fe       1.25389330       5.87031905     129.27783386       0.00021121      -0.00020376       0.00002433        0        0       -1       58       26 
Fe      -0.16189321       7.17257761     130.79847909       0.00015076      -0.00018400      -0.00004751        0        0       -1       58       26 
Fe       1.25377742       8.69141862     129.49477298       0.00017353      -0.00020311       0.00001346        0        0       -1       58       26 
Fe      -0.16201376       9.99388299     131.01540440       0.00024662      -0.00013323       0.00001559        0        0       -1       58       26 
Fe       1.25363053      11.51225409     129.71136063       0.00027802      -0.00028202       0.00005299        0        0       -1       58       26 
Fe      -0.16214242      12.81515188     131.23205517       0.00028057      -0.00022327       0.00004259        0        0       -1       58       26 
Fe       1.25351048      14.33350728     129.92808272       0.00029222      -0.00024246      -0.00001656        0        0       -1       58       26 
Fe      -0.16226458      15.63669668     131.44885765       0.00039913      -0.00017182      -0.00002646        0        0       -1       58       26 
Fe       1.25340336      17.15550460     130.14529762       0.00021229      -0.00025037      -0.00004353        0        0       -1       58       26 
Fe      -0.16234150      18.45859723     131.66617805       0.00026590      -0.00027518      -0.00000736        0        0       -1       58       26 
Fe       1.25329636      19.97788492     130.36303834       0.00031116      -0.00018952      -0.00004008        0        0       -1       58       26 
Fe      -0.16243477      21.28064966     131.88391578       0.00023304      -0.00014934       0.00003344        0        0       -1       58       26 
Fe       1.25320631      22.80015638     130.58095797       0.00026762      -0.00016270      -0.00003466        0        0       -1       58       26 
Fe      -0.16252980      24.10265493     132.10170341       0.00029091      -0.00023855      -0.00000218        0        0       -1       58       26 
Fe       1.25310313      25.62191987     130.79847768       0.00015432      -0.00017159      -0.00005009        0        0       -1       58       26 