13848
Lattice="16.98 0.0 0.0 0.0 68.15542532 0.0 0.0 0.0 135.95233734" Properties=species:S:1:pos:R:3:force:R:3:map_shift:I:3:n_neighb:I:1:Z:I:1 nneightol=1.2 virial="-290.35278093 56.62900695 -0.00455795 56.62900695 -171.61542447 -0.06577383 -0.00455795 -0.06577383 -439.61336753" energy=-55475.36802146 cutoff=5.3 pbc="T T T"
Fe      14.17536175      51.59558831      27.13603579       0.00024712       0.00008109      -0.00000258       -1       -1        0       57       26 
Fe      -0.13583995       2.02705911     103.54851550       0.00001279       0.00008056      -0.00005417        0        0       -1       58       26 
Fe       1.26234898       4.02261806     103.51701977       0.00009764       0.00006658       0.00017176        0        0       -1       58       26 
Fe      -0.09785209       4.13015429     105.52386622       0.00000549      -0.00006730       0.00009812        0        0       -1       58       26 
Fe       1.31490777       6.12971780     105.48282199       0.00007305      -0.00013172       0.00011256        0        0       -1       58       26 
Fe      -0.05712851       6.25009215     107.47277762      -0.00007055      -0.00008798       0.00002014        0        0       -1       58       26 
Fe       1.36905578       8.25716775     107.41102212      -0.00005299       0.00008397       0.00000763        0        0       -1       58       26 
Fe      -0.01635264       8.37603210     109.38830157       0.00002786       0.00014104      -0.00002486        0        0       -1       58       26 
Fe       1.41799949      10.38588227     109.28979555      -0.00003749       0.00021405      -0.00020302        0        0       -1       58       26 
Fe       0.01823075      10.50078101     111.26326428       0.00011248      -0.00008257      -0.00009995        0        0       -1       58       26 
Fe       1.45334350      12.50533996     111.11797453       0.00002795      -0.00008351      -0.00018987        0        0       -1       58       26 
Fe       0.04213496      12.61828546     113.10456588       0.00000417      -0.00023552      -0.00010698        0        0       -1       58       26 
Fe       1.47266197      14.61451830     112.94474603      -0.00006558      -0.00023124      -0.00003407        0        0       -1       58       26 
Fe       0.05502243      14.72906588     114.94883562       0.00000979      -0.00005368      -0.00014290        0        0       -1       58       26 
Fe       1.48002401      16.72313890     114.80992181      -0.00004125       0.00003047      -0.00000842        0        0       -1       58       26 
Fe       0.05989621      16.83923197     116.81747648      -0.00006415       0.00016514       0.00000420        0        0       -1       58       26 
Fe       1.48034979      18.83416310     116.69449524      -0.00010046       0.00004123       0.00001676        0        0       -1       58       26 
Fe       0.05999590      18.95105175     118.70021818      -0.00000914      -0.00002518       0.00011786        0        0       -1       58       26 
Fe       1.47717421      20.94747542     118.58518088      -0.00004399       0.00006684      -0.00002160        0        0       -1       58       26 
Fe       0.05767941      21.06437746     120.58783859       0.00011757       0.00016398       0.00001268        0        0       -1       58       26 
Fe       1.47279199      23.06199725     120.47415938       0.00022942       0.00018041       0.00007644        0        0       -1       58       26 
Fe       0.05463959      23.17882745     122.47439543       0.00025560       0.00012163       0.00000807        0        0       -1       58       26 
Fe       1.46875225      25.17699221     122.35842885       0.00020547       0.00010893      -0.00017384        0        0       -1       58       26 
Fe       0.05192164      25.29360899     124.35771799       0.00010987       0.00008318      -0.00013026        0        0       -1       58       26 
Fe       1.46570182      27.29164126     124.23857602      -0.00009754       0.00011845       0.00002191        0        0       -1       58       26 
Fe       0.04984922      27.40812564     126.23830529       0.00009177       0.00008576      -0.00005789        0        0       -1       58       26 
Fe       1.46364285      29.40572942     126.11776498      -0.00002776       0.00013402       0.00000878        0        0       -1       58       26 
Fe       0.04844653      29.52227213     128.11844211       0.00001225       0.00006732      -0.00002090        0        0       -1       58       26 
Fe       1.46242227      31.51958185     127.99841980      -0.00008502       0.00005009      -0.00000942        0        0       -1       58       26 
Fe       0.04758620      31.63631605     129.99970060      -0.00014523      -0.00015015      -0.00014235        0        0       -1       58       26 
Fe       1.46176082      33.63362187     129.88139011      -0.00014668      -0.00005129      -0.00010544        0        0       -1       58       26 
Fe       0.04704122      33.75046930     131.88257296      -0.00005756       0.00002201      -0.00015145        0        0       -1       58       26 
Fe       1.31154830       0.03366641     103.59665668      -0.00007584      -0.00006839       0.00000432        0        0       -1       58       26 
Fe      -0.05499006       0.14473024     105.63650162      -0.00000959      -0.00017250       0.00000819        0        0       -1       58       26 
Fe       1.33205176       2.13500694     105.57099309       0.00014548      -0.00008617      -0.00000735        0        0       -1       58       26 
Fe      -0.04504688       2.25282881     107.58942979       0.00018755      -0.00024777       0.00004332        0        0       -1       58       26 
Fe       1.35851292       4.24883018     107.52831596       0.00011000      -0.00023395       0.00007431        0        0       -1       58       26 
Fe      -0.02612839       4.36877643     109.53142710       0.00004877      -0.00000049       0.00013896        0        0       -1       58       26 
Fe       1.38916110       6.37005822     109.46336651       0.00006090       0.00006080      -0.00014593        0        0       -1       58       26 
Fe      -0.00355458       6.48921478     111.45523564       0.00004248       0.00002482      -0.00019155        0        0       -1       58       26 
Fe       1.41894461       8.49379586     111.36973294       0.00009855      -0.00001090       0.00003634        0        0       -1       58       26 
Fe       0.01780826       8.61111829     113.35491482       0.00016193      -0.00004732      -0.00008286        0        0       -1       58       26 
Fe       1.44312845      10.61580356     113.24376245       0.00013748      -0.00010327      -0.00016322        0        0       -1       58       26 
Fe       0.03463204      10.73103249     115.22953625       0.00009993      -0.00003922      -0.00014088        0        0       -1       58       26 
Fe       1.45934280      12.73214519     115.09567586       0.00004003      -0.00002990      -0.00016051        0        0       -1       58       26 
Fe       0.04569300      12.84671799     117.08956788       0.00003427       0.00006876      -0.00012062        0        0       -1       58       26 
Fe       1.46802617      14.84401894     116.95129136       0.00005300       0.00007255      -0.00003257        0        0       -1       58       26 
Fe       0.05153127      14.95936550     118.95278706       0.00000052       0.00003076      -0.00002247        0        0       -1       58       26 
Fe       1.47123908      16.95537312     118.82278912       0.00007629      -0.00002498      -0.00001991        0        0       -1       58       26 
Fe       0.05365208      17.07143508     120.82657379       0.00016530       0.00009089      -0.00003385        0        0       -1       58       26 
Fe       1.47120443      19.06765496     120.70445122       0.00024667       0.00010382       0.00018563        0        0       -1       58       26 
Fe       0.05359570      19.18428555     122.70759983       0.00004224       0.00014501       0.00009846        0        0       -1       58       26 
Fe       1.46959630      21.18122992     122.58988561       0.00008763       0.00005331      -0.00000829        0        0       -1       58       26 
Fe       0.05249645      21.29805835     124.59149410       0.00006178       0.00002971      -0.00003862        0        0       -1       58       26 
Fe       1.46754170      23.29563909     124.47472879       0.00011530       0.00010387      -0.00005283        0        0       -1       58       26 
Fe       0.05113675      23.41240608     126.47509962       0.00014411      -0.00000671      -0.00001162        0        0       -1       58       26 
Fe       1.46571218      25.41025609     126.35738788       0.00008941       0.00006963      -0.00000424        0        0       -1       58       26 
Fe      17.02996625      25.52691273     128.35731636       0.00003788      -0.00001081       0.00005322       -1        0       -1       58       26 
Fe       1.46431973      27.52469561     128.23835356       0.00009673      -0.00002861      -0.00000273        0        0       -1       58       26 
Fe       0.04906123      27.64128462     130.23858348      -0.00000594      -0.00007809       0.00005036        0        0       -1       58       26 
Fe       1.46338624      29.63890115     130.11912934      -0.00006669      -0.00011168      -0.00007570        0        0       -1       58       26 
Fe       0.04840692      29.75550603     132.11981415      -0.00003034       0.00011565       0.00000141        0        0       -1       58       26 
Fe       1.46275143      31.75299641     132.00073628      -0.00010034       0.00004945      -0.00014864        0        0       -1       58       26 
Fe       0.04790203      31.86974573     134.00155575      -0.00010838       0.00002564      -0.00007113        0        0       -1       58       26 
Fe       1.46224830      33.86732335     133.88337316      -0.00007840       0.00002938      -0.00006709        0        0       -1       58       26 
Fe       1.39137551       0.26182763     107.66812448       0.00018212      -0.00041586      -0.00002491        0        0       -1       58       26 
Fe      -0.00252258       0.37980400     109.69248737       0.00027823      -0.00015143      -0.00009869        0        0       -1       58       26 
Fe       1.39696919       2.37216143     109.60422653       0.00019713      -0.00012312      -0.00001759        0        0       -1       58       26 
Fe       0.00123238       2.49129567     111.61593162       0.00015528       0.00005255       0.00006037        0        0       -1       58       26 
Fe       1.41067836       4.48832722     111.53368997       0.00016065       0.00000155       0.00009871        0        0       -1       58       26 
Fe       0.01120045       4.60738064     113.53533140       0.00010229      -0.00003986       0.00005372        0        0       -1       58       26 
Fe       1.42709109       6.60783933     113.44836817       0.00009875      -0.00004072      -0.00012282        0        0       -1       58       26 
Fe       0.02299666       6.72595941     115.44278471       0.00007113       0.00000394      -0.00006059        0        0       -1       58       26 
Fe       1.44223208       8.72809926     115.34332383       0.00010186      -0.00003750      -0.00017922        0        0       -1       58       26 
Fe       0.03366963       8.84492306     117.33440055      -0.00001078       0.00010721      -0.00006683        0        0       -1       58       26 
Fe       1.45391342      10.84654605     117.21918788       0.00001142      -0.00006303       0.00001441        0        0       -1       58       26 
Fe       0.04176912      10.96229647     119.21170558      -0.00006660       0.00006113       0.00001364        0        0       -1       58       26 
Fe       1.46148656      12.96183823     119.08529202      -0.00008076       0.00004868      -0.00007019        0        0       -1       58       26 
Fe       0.04690206      13.07731802     121.08230723      -0.00004484       0.00014514      -0.00009540        0        0       -1       58       26 
Fe       1.46540124      15.07493910     120.95377486       0.00000132       0.00011141      -0.00001756        0        0       -1       58       26 
Fe       0.04955698      15.19087928     122.95447123      -0.00000954       0.00002749      -0.00002362        0        0       -1       58       26 
Fe       1.46682533      17.18769569     122.82929816       0.00003050       0.00009911       0.00002183        0        0       -1       58       26 
Fe       0.05055584      17.30408098     124.83132391      -0.00000885      -0.00013091      -0.00008440        0        0       -1       58       26 
Fe       1.46680822      19.30095149     124.70993906      -0.00002786      -0.00002790       0.00015437        0        0       -1       58       26 
Fe       0.05059098      19.41754787     126.71170736      -0.00009323      -0.00007161       0.00008302        0        0       -1       58       26 
Fe       1.46609756      21.41482470     126.59273822       0.00009060      -0.00003278       0.00007071        0        0       -1       58       26 
Fe       0.05019902      21.53151421     128.59371639      -0.00002567      -0.00005728       0.00011930        0        0       -1       58       26 
Fe       1.46527027      23.52912607     128.47547133       0.00002393      -0.00009214       0.00008499        0        0       -1       58       26 
Fe       0.04977865      23.64574420     130.47586144      -0.00016710       0.00010398       0.00005820        0        0       -1       58       26 
Fe       1.46456697      25.64350923     130.35742131      -0.00018936       0.00012903       0.00024569        0        0       -1       58       26 
Fe       0.04937070      25.76016952     132.35765879      -0.00018592       0.00021341       0.00030217        0        0       -1       58       26 
Fe       1.46398583      27.75789366     132.23892397      -0.00009882       0.00016671       0.00006446        0        0       -1       58       26 
Fe       0.04903193      27.87467992     134.23938996      -0.00006061       0.00004485       0.00000657        0        0       -1       58       26 
Fe       1.46352522      29.87223679     134.12049025      -0.00003948       0.00005865      -0.00008738        0        0       -1       58       26 
Fe       1.42718837       0.49770964     111.71110101       0.00020104       0.00004481       0.00000725        0        0       -1       58       26 
Fe       0.02254856       0.61545983     113.72529498       0.00003511       0.00004445       0.00012567        0        0       -1       58       26 
Fe       1.42990782       2.61005661     113.62505379       0.00015189       0.00002251       0.00005187        0        0       -1       58       26 
Fe       0.02459749       2.72835922     115.63212329       0.00011690       0.00020303       0.00009934        0        0       -1       58       26 
Fe       1.43715649       4.72591492     115.53646803      -0.00003232       0.00011476       0.00006718        0        0       -1       58       26 
Fe       0.02982164       4.84410404     117.53723857       0.00018577       0.00022429       0.00003318        0        0       -1       58       26 
Fe       1.44555340       6.84372845     117.43828284       0.00009640       0.00008994       0.00004547        0        0       -1       58       26 
Fe       0.03581734       6.96131086     119.43476026       0.00006623       0.00004636       0.00003019        0        0       -1       58       26 
Fe       1.45306910       8.96168479     119.32764585       0.00004198       0.00008711       0.00003242        0        0       -1       58       26 
Fe       0.04104764       9.07844842     121.32258786       0.00003097      -0.00009931       0.00009033        0        0       -1       58       26 
Fe       1.45865144      11.07829384     121.20630436      -0.00013077       0.00005726      -0.00006225        0        0       -1       58       26 
Fe       0.04482853      11.19452256     123.20244541       0.00005426       0.00001765      -0.00013697        0        0       -1       58       26 
Fe       1.46210221      13.19321585     123.08021778       0.00012113       0.00002036      -0.00009620        0        0       -1       58       26 
Fe       0.04718868      13.30931463     125.07881577       0.00003681      -0.00014358      -0.00013247        0        0       -1       58       26 
Fe       1.46393696      15.30701381     124.95503892       0.00008232      -0.00021477      -0.00019502        0        0       -1       58       26 
Fe       0.04846138      15.42319508     126.95554870       0.00021747       0.00005441      -0.00019331        0        0       -1       58       26 
Fe       1.46466557      17.42045167     126.83285383       0.00006588      -0.00005900      -0.00011891        0        0       -1       58       26 
Fe       0.04905609      17.53686983     128.83403652       0.00005365       0.00008629       0.00000899        0        0       -1       58       26 
Fe       1.46479583      19.53413096     128.71305662      -0.00013646      -0.00004179       0.00012813        0        0       -1       58       26 
Fe       0.04929552      19.65064847     130.71411345      -0.00003250       0.00009399       0.00021454        0        0       -1       58       26 
Fe       1.46467452      21.64809669     130.59449054      -0.00013710       0.00013943       0.00017802        0        0       -1       58       26 
Fe       0.04938179      21.76475842     132.59509247      -0.00010427       0.00027577       0.00011083        0        0       -1       58       26 
Fe       1.46449654      23.76243684     132.47623907      -0.00011475       0.00024210       0.00001492        0        0       -1       58       26 
Fe       0.04945326      23.87929298     134.47655326      -0.00008946      -0.00004534      -0.00001051        0        0       -1       58       26 
Fe       1.46435576      25.87701696     134.35799015      -0.00010274      -0.00005974       0.00020526        0        0       -1       58       26 
Fe       1.44487467       0.73298962     115.73607515       0.00003917       0.00016911       0.00009493        0        0       -1       58       26 
Fe       0.03506376       0.85042007     117.74428167       0.00008371       0.00011062       0.00003095        0        0       -1       58       26 
Fe       1.44642133       2.84641198     117.63753717       0.00004061       0.00016163       0.00009980        0        0       -1       58       26 
Fe       0.03626284       2.96425477     119.64169341       0.00008916      -0.00003214       0.00002353        0        0       -1       58       26 
Fe       1.45019718       4.96204856     119.53780361       0.00016861       0.00003475       0.00000614        0        0       -1       58       26 
Fe       0.03894944       5.07969357     121.53820509      -0.00000009      -0.00012449       0.00001225        0        0       -1       58       26 
Fe       1.45442652       7.07866875     121.43207148      -0.00009021      -0.00005146       0.00004291        0        0       -1       58       26 
Fe       0.04185252       7.19588395     123.43006201      -0.00000637      -0.00003683      -0.00002452        0        0       -1       58       26 
Fe       1.45799381       9.19519204     123.31888887       0.00000844       0.00000833       0.00008910        0        0       -1       58       26 
Fe       0.04426768       9.31195483     125.31624360       0.00004371       0.00006235       0.00006112        0        0       -1       58       26 
Fe       1.46055866      11.31086653     125.19975083       0.00021704      -0.00000760       0.00004752        0        0       -1       58       26 
Fe       0.04601127      11.42730235     127.19797801       0.00016190       0.00013168       0.00006241        0        0       -1       58       26 
Fe       1.46218267      13.42552321     127.07792743       0.00012958       0.00007506       0.00002692        0        0       -1       58       26 
Fe       0.04715788      13.54191743     129.07749381       0.00021368       0.00014917      -0.00007391        0        0       -1       58       26 
Fe       1.46313253      15.53954553     128.95604694       0.00001719       0.00007798      -0.00019296        0        0       -1       58       26 
Fe       0.04790973      15.65595905     130.95660110       0.00007187       0.00010054      -0.00026129        0        0       -1       58       26 
Fe       1.46367098      17.65332625     130.83500972       0.00009396       0.00006973       0.00005073        0        0       -1       58       26 
Fe       0.04842859      17.76985842     132.83583853       0.00009394       0.00019301       0.00011694        0        0       -1       58       26 
Fe       1.46399468      19.76724283     132.71492847      -0.00007327       0.00018403       0.00013121        0        0       -1       58       26 
Fe       0.04887852      19.88397093     134.71551946      -0.00011265       0.00000600       0.00014476        0        0       -1       58       26 
Fe       1.46427412      21.88157964     134.59551138      -0.00001444      -0.00003700       0.00015243        0        0       -1       58       26 
Fe       1.45378585       0.96774471     119.75050861      -0.00005335       0.00003139       0.00008232        0        0       -1       58       26 
Fe       0.04142991       1.08495911     121.75525174      -0.00018051      -0.00006806       0.00007981        0        0       -1       58       26 
Fe       1.45466173       3.08183221     121.64485041      -0.00003383      -0.00007937       0.00007152        0        0       -1       58       26 
Fe       0.04200527       3.19921928     123.64725586      -0.00003714       0.00007493       0.00001153        0        0       -1       58       26 
Fe       1.45648886       5.19713910     123.53849516      -0.00001157      -0.00000779      -0.00000823        0        0       -1       58       26 
Fe       0.04319232       5.31445675     125.53871627       0.00011585       0.00016531       0.00004506        0        0       -1       58       26 
Fe       1.45843618       7.31301527     125.42859989       0.00018139       0.00005605       0.00001982        0        0       -1       58       26 
Fe       0.04451793       7.43008014     127.42758124       0.00009974       0.00015754       0.00004994        0        0       -1       58       26 
Fe       1.46010216       9.42872847     127.31443415       0.00005845       0.00012800      -0.00003259        0        0       -1       58       26 
Fe      17.02563065       9.54558280     129.31330008       0.00005483       0.00000567      -0.00000010       -1        0       -1       58       26 
Fe       1.46130133      11.54391073     129.19691735       0.00003551       0.00008627       0.00000626        0        0       -1       58       26 
Fe       0.04644547      11.66059030     131.19645816       0.00008540       0.00016893      -0.00005073        0        0       -1       58       26 
Fe       1.46212714      13.65841532     131.07746071       0.00012308       0.00015675      -0.00007052        0        0       -1       58       26 
Fe       0.04706608      13.77506000     133.07781841       0.00001417       0.00004547      -0.00004886        0        0       -1       58       26 
Fe       1.46275595      15.77250414     132.95722607       0.00003499       0.00013190      -0.00011691        0        0       -1       58       26 
Fe       0.04762513      15.88918459     134.95800310      -0.00004102      -0.00006719       0.00002754        0        0       -1       58       26 
Fe       1.46329481      17.88652259     134.83656747      -0.00006974       0.00002526       0.00016730        0        0       -1       58       26 
Fe       1.45826207       1.20208524     123.75887424      -0.00018364       0.00005999       0.00001856        0        0       -1       58       26 
Fe       0.04452140       1.31915352     125.76164227      -0.00004255       0.00017183      -0.00014341        0        0       -1       58       26 
Fe       1.45858061       3.31651058     125.64904494       0.00004054       0.00013253       0.00003371        0        0       -1       58       26 
Fe       0.04465002       3.43374449     127.65038375       0.00017910       0.00004152       0.00009327        0        0       -1       58       26 
Fe       1.45936605       5.43170114     127.53890253       0.00009708       0.00014392       0.00006539        0        0       -1       58       26 
Fe       0.04513585       5.54892427     129.53907538       0.00017799       0.00003154      -0.00002720        0        0       -1       58       26 
Fe       1.46023203       7.54717832     129.42692713       0.00009665       0.00000511       0.00003462        0        0       -1       58       26 
Fe       0.04563483       7.66431536     131.42659846       0.00016484      -0.00000028      -0.00008720        0        0       -1       58       26 
Fe       1.46092040       9.66250766     131.31271125       0.00018040       0.00010482       0.00004841        0        0       -1       58       26 
Fe       0.04605375       9.77954076     133.31260806       0.00002870       0.00004626      -0.00006415        0        0       -1       58       26 
Fe       1.46147465      11.77742506     133.19650352       0.00011488       0.00002724      -0.00005940        0        0       -1       58       26 
Fe       0.04639070      11.89432947     135.19703704       0.00003536      -0.00010383      -0.00014210        0        0       -1       58       26 
Fe       1.46195237      13.89182459     135.07852748       0.00007544      -0.00004243      -0.00007491        0        0       -1       58       26 
Fe       1.46037548       1.43623824     127.76369718       0.00008236       0.00011172      -0.00010204        0        0       -1       58       26 
Fe       0.04598118       1.55330821     129.76520240      -0.00000428      -0.00000495      -0.00000071        0        0       -1       58       26 
Fe       1.46040736       3.55095254     129.65135825       0.00010695      -0.00002504      -0.00002071        0        0       -1       58       26 
Fe       0.04589674       3.66813634     131.65201367      -0.00000973      -0.00009980      -0.00002300        0        0       -1       58       26 
Fe       1.46063213       5.66614530     131.53921772       0.00014231       0.00000370      -0.00005472        0        0       -1       58       26 
Fe       0.04591219       5.78335022     133.53931016      -0.00009213      -0.00007669      -0.00005930        0        0       -1       58       26 
Fe       1.46085859       7.78148030     133.42650661       0.00002474      -0.00003366      -0.00010821        0        0       -1       58       26 
Fe       0.04586766       7.89863108     135.42662133      -0.00008550       0.00001126      -0.00003625        0        0       -1       58       26 
Fe       1.46101798       9.89659804     135.31291214      -0.00008944      -0.00004792      -0.00013750        0        0       -1       58       26 
Fe       1.46139248       1.67034523     131.76623929       0.00000359      -0.00002315      -0.00001087        0        0       -1       58       26 
Fe       0.04662258       1.78734888     133.76685732      -0.00004995      -0.00004821       0.00007413        0        0       -1       58       26 
Fe       1.46116718       3.78526731     133.65237337      -0.00001624      -0.00000292       0.00008586        0        0       -1       58       26 
Fe       0.04623801       3.90238576     135.65245017      -0.00008760       0.00011932       0.00018539        0        0       -1       58       26 
Fe       1.46093662       5.90053138     135.53934755      -0.00005305      -0.00001344      -0.00001034        0        0       -1       58       26 
Fe       1.46172161       1.90434369     135.76709548      -0.00011063      -0.00004486       0.00005233        0        0       -1       58       26 
Fe      -0.15673628       6.01839264     103.49115320       0.00009014      -0.00000945       0.00020696        0        0       -1       58       26 
Fe       1.26763274       8.01339221     103.46313254       0.00014327      -0.00004973      -0.00013256        0        0       -1       58       26 
Fe      -0.08841908       8.13455535     105.43729709       0.00006598      -0.00022512      -0.00004840        0        0       -1       58       26 
Fe       1.35574940      10.14780705     105.37163887       0.00014362      -0.00009812      -0.00010481        0        0       -1       58       26 
Fe      -0.02100685      10.27068160     107.32522365      -0.00002566       0.00005835      -0.00020895        0        0       -1       58       26 
Fe       1.43540008      12.28545152     107.17394233       0.00002664       0.00026727      -0.00000134        0        0       -1       58       26 
Fe       0.03195098      12.39405733     109.13907168      -0.00001262       0.00023711      -0.00017013        0        0       -1       58       26 
Fe       1.48140123      14.38605038     108.92558874      -0.00009609       0.00021943       0.00001705        0        0       -1       58       26 
Fe       0.06129340      14.50013727     110.93773938      -0.00017033      -0.00003878      -0.00000287        0        0       -1       58       26 
Fe       1.49773349      16.49008716     110.78345599      -0.00017643      -0.00001736       0.00005922        0        0       -1       58       26 
Fe       0.07232641      16.60691327     112.79906397      -0.00012703      -0.00021386       0.00014708        0        0       -1       58       26 