13776
Lattice="16.98 0.0 0.0 0.0 68.15542532 0.0 0.0 0.0 135.03322206" Properties=species:S:1:pos:R:3:force:R:3:map_shift:I:3:n_neighb:I:1:Z:I:1 virial="92.29558106 0.22010466 0.01764284 0.22010466 -51.46091639 0.46807983 0.01764284 0.46807983 2.2675829" cutoff=5.3 adsorbate_info=T nneightol=1.2 energy=-55175.47870661 pbc="T T T"
Fe      14.03608808      58.31560006      16.14602794       0.00078542       0.00074167      -0.00033669       -1       -1        0       58       26
Fe      15.44984190      56.78268218      17.43540114      -0.00052006       0.00130413       0.00076271       -1       -1        0       58       26
Fe      14.03714863      55.48903966      15.91582428      -0.00020584       0.00216472      -0.00044518       -1       -1        0       58       26
Fe      -0.13661700       8.20775562     101.52090997      -0.00087250       0.00308051       0.00569621        0        0       -1       56       26
Fe      -0.13554277      11.23612006     102.05953152      -0.00053761       0.00031238       0.00164432        0        0       -1       56       26
Fe      -0.13592262      14.16648770     102.25781648      -0.00175465      -0.00051594       0.00052644        0        0       -1       58       26
Fe      -0.13734244      17.02507748     102.31035676       0.00141934       0.00289109       0.00059668        0        0       -1       58       26
Fe      15.45061676      53.96150867      17.21391335      -0.00038881      -0.00000063      -0.00118537       -1       -1        0       58       26
Fe      -0.13760840      19.89129197     102.34509088       0.00074528      -0.00073801       0.00099462        0        0       -1       58       26
Fe      14.03806748      52.67096561      15.69041024      -0.00094233       0.00286906      -0.00091646       -1       -1        0       58       26
Fe      -0.13822522      22.75158340     102.40421160      -0.00085334      -0.00222774       0.00501767        0        0       -1       60       26
Fe      15.45141844      51.14754846      16.99246703      -0.00039354       0.00165671      -0.00156779       -1       -1        0       58       26
Fe      -0.13565633      25.22482462     102.93113105       0.00312605       0.00015375       0.00003310        0        0       -1       56       26
Fe       1.27914634      26.87882927     102.04485786      -0.00090742      -0.00016388      -0.00248094        0        0       -1       52       26
Fe      -0.13446509      28.23085328     103.46577100       0.00141001      -0.00130170       0.00232297        0        0       -1       56       26
Fe       1.27782328      29.82835720     102.29212656      -0.00058775      -0.00085172       0.00095033        0        0       -1       56       26
Fe      -0.13452132      31.15464389     103.68764796       0.00132819      -0.00086804      -0.00067883        0        0       -1       58       26
Fe       1.27843864      32.65404961     102.33554181      -0.00171453       0.00103312      -0.00189674        0        0       -1       58       26
Fe      -0.13389346      33.98817866     103.76828957      -0.00255246       0.00059244      -0.00116495        0        0       -1       58       26
Fe       1.27794836       1.40273714     102.37305843       0.00007746       0.00043025      -0.00217215        0        0       -1       58       26
Fe      -0.13458294       2.69723263     103.86780935       0.00232570       0.00111440      -0.00206978        0        0       -1       58       26
Fe       1.27844737       4.20866596     102.46060408       0.00078271       0.00411624      -0.00085279        0        0       -1       58       26
Fe      -0.13356137       5.35767871     104.12724934       0.00247531       0.00029226      -0.00082590        0        0       -1       56       26
Fe       1.27978175       6.82250727     102.87788740       0.00316684       0.00012441      -0.00284213        0        0       -1       56       26
Fe      -0.13227745       8.14661485     104.41517948       0.00149928       0.00082309      -0.00005712        0        0       -1       56       26
Fe       1.28071256       9.63714459     103.17580664       0.00251340      -0.00125336       0.00079940        0        0       -1       55       26
Fe      -0.13167366      11.01472861     104.69589983       0.00108414      -0.00281951       0.00067182        0        0       -1       59       26
Fe       1.28178417      12.59359852     103.49738167      -0.00273624      -0.00063473       0.00139107        0        0       -1       58       26
Fe      -0.13147039      13.94202311     104.94342448      -0.00020234      -0.00049512       0.00135522        0        0       -1       58       26
Fe       1.28146570      15.51287481     103.66639579      -0.00317655      -0.00064716      -0.00034209        0        0       -1       58       26
Fe      -0.13219819      16.83519535     105.10768349       0.00175994       0.00038189       0.00098388        0        0       -1       58       26
Fe       1.28017769      18.37415925     103.74603391      -0.00010623       0.00103931       0.00122831        0        0       -1       58       26
Fe      -0.13159455      19.65187636     105.24564266       0.00071733       0.00021085       0.00161981        0        0       -1       58       26
Fe       1.28015644      21.19249730     103.85541560       0.00198575      -0.00037064       0.00209055        0        0       -1       58       26
Fe      -0.13086740      22.32923018     105.51932575       0.00148614       0.00062666      -0.00162564        0        0       -1       56       26
Fe       1.28189433      23.80719652     104.26932096       0.00021898      -0.00013482       0.00095040        0        0       -1       56       26
Fe      -0.12968442      25.11483836     105.81703516       0.00136586      -0.00034959      -0.00032155        0        0       -1       56       26
Fe       1.28356673      26.61785149     104.57734027       0.00016898      -0.00090429       0.00175456        0        0       -1       57       26
Fe      -0.12858364      27.97113958     106.11148779      -0.00139250       0.00022357       0.00080716        0        0       -1       59       26
Fe       1.28348541      29.56367794     104.91915734      -0.00052808      -0.00048423       0.00110070        0        0       -1       58       26
Fe      -0.12854560      30.88230705     106.38727607      -0.00031467      -0.00169496       0.00226061        0        0       -1       58       26
Fe       1.28424146      32.46340730     105.11985929      -0.00170903      -0.00253777      -0.00069194        0        0       -1       58       26
Fe      -0.12796232      33.74110072     106.59704235      -0.00203228       0.00018073      -0.00127344        0        0       -1       58       26
Fe       1.28429779       1.19285913     105.25195148      -0.00113131      -0.00019801      -0.00091750        0        0       -1       58       26
Fe      -0.12827340       2.42743174     106.79290822       0.00047996      -0.00118365       0.00000780        0        0       -1       58       26
Fe       1.28477312       3.90494385     105.45195851      -0.00024137      -0.00085620       0.00065733        0        0       -1       58       26
Fe      -0.12704443       5.17636463     107.00992816      -0.00209200       0.00112142      -0.00173793        0        0       -1       58       26
Fe       1.28537112       6.65504322     105.69880913       0.00040012       0.00151888       0.00383936        0        0       -1       58       26
Fe      -0.12617969       7.97798855     107.23347459      -0.00222416      -0.00028396       0.00051340        0        0       -1       58       26
Fe       1.28556369       9.48540253     105.94704694       0.00155434      -0.00206427       0.00237618        0        0       -1       58       26
Fe      -0.12624368      10.82559753     107.46157105      -0.00113365      -0.00053732       0.00086982        0        0       -1       58       26
Fe       1.28620695      12.36843942     106.19157936      -0.00197235       0.00176618       0.00068938        0        0       -1       58       26
Fe      -0.12679877      13.69783652     107.69004886       0.00203207      -0.00065820      -0.00102450        0        0       -1       58       26
Fe       1.28538072      15.26668715     106.41216978       0.00160265      -0.00123653      -0.00228441        0        0       -1       58       26
Fe      -0.12697856      16.55557597     107.91490180       0.00271060       0.00053776       0.00112540        0        0       -1       58       26
Fe       1.28542081      18.11200817     106.60194037       0.00118946       0.00149827       0.00074074        0        0       -1       58       26
Fe      -0.12576163      19.34714665     108.15102892       0.00032466       0.00007261      -0.00377574        0        0       -1       58       26
Fe       1.28583279      20.85175510     106.83161151       0.00231028       0.00076173      -0.00282928        0        0       -1       58       26
Fe      -0.12545002      22.11293539     108.39426722       0.00086763       0.00171436       0.00075281        0        0       -1       58       26
Fe       1.28650242      23.61083718     107.09681379       0.00256089      -0.00120110      -0.00136005        0        0       -1       58       26
Fe      -0.12462118      24.91641172     108.63972409      -0.00109504      -0.00342245      -0.00285146        0        0       -1       58       26
Fe       1.28823860      26.43343654     107.36052596       0.00024014      -0.00107859      -0.00187453        0        0       -1       58       26
Fe      -0.12386578      27.75285042     108.88839562      -0.00002692      -0.00023676      -0.00087405        0        0       -1       58       26
Fe       1.28889865      29.30061196     107.62592284      -0.00044081       0.00158201       0.00026524        0        0       -1       58       26
Fe      -0.12323025      30.60754338     109.14394105      -0.00046338      -0.00019726       0.00132827        0        0       -1       58       26
Fe       1.28959029      32.17553792     107.88245362      -0.00251691       0.00000185       0.00124954        0        0       -1       58       26
Fe      -0.12292572      33.44941895     109.40177092      -0.00111275      -0.00097050       0.00083064        0        0       -1       58       26
Fe       1.28986759       0.91645560     108.11527983      -0.00283661      -0.00166245      -0.00036821        0        0       -1       58       26
Fe      -0.12350201       2.18167216     109.63977850       0.00243593      -0.00086784       0.00077482        0        0       -1       58       26
Fe       1.29045964       3.68989273     108.33031169      -0.00270821       0.00106434      -0.00054988        0        0       -1       58       26
Fe      -0.12186821       4.97969071     109.85317105      -0.00217373       0.00001905      -0.00086201        0        0       -1       58       26
Fe       1.29080584       6.47980529     108.53942232      -0.00042400      -0.00013866       0.00056625        0        0       -1       58       26
Fe      -0.12098504       7.79087179     110.05892188      -0.00237233      -0.00086978      -0.00076904        0        0       -1       58       26
Fe       1.29105476       9.30287100     108.75267734      -0.00013201       0.00072378       0.00096552        0        0       -1       58       26
Fe      -0.12114404      10.61887447     110.27083523      -0.00070574      -0.00166695       0.00060289        0        0       -1       58       26
Fe       1.29133067      12.15017065     108.97430890      -0.00176944      -0.00044492       0.00013922        0        0       -1       58       26
Fe      -0.12138433      13.45337266     110.49709265       0.00022965      -0.00079794       0.00063210        0        0       -1       58       26
Fe       1.29088610      14.99826776     109.20586635       0.00115479      -0.00062637       0.00052047        0        0       -1       58       26
Fe      -0.12093106      16.27668072     110.74131858       0.00086079       0.00088454      -0.00250492        0        0       -1       58       26
Fe       1.29186576      17.81582601     109.45110395      -0.00257790       0.00221867      -0.00031245        0        0       -1       58       26
Fe      -0.11973100      19.08515300     110.99178790      -0.00304469      -0.00067535      -0.00049779        0        0       -1       58       26
Fe       1.29264067      20.60697631     109.69703930      -0.00259742       0.00096021       0.00162302        0        0       -1       58       26
Fe      -0.11985312      21.88991439     111.23179372      -0.00162551       0.00101099      -0.00070144        0        0       -1       58       26
Fe       1.29218854      23.40444202     109.93364991       0.00175559      -0.00147016      -0.00187694        0        0       -1       58       26
Fe      -0.12004659      24.70268801     111.46368526       0.00144158       0.00083577       0.00084271        0        0       -1       58       26
Fe       1.29341525      26.22358988     110.17094643      -0.00154104       0.00010948      -0.00155341        0        0       -1       58       26
Fe      -0.11934314      27.52580118     111.70033559       0.00022818      -0.00053212      -0.00080182        0        0       -1       58       26
Fe       1.29386747      29.05895139     110.41625871      -0.00088264       0.00018700      -0.00146863        0        0       -1       58       26
Fe      -0.11863558      30.35429833     111.94798788      -0.00071939       0.00010738      -0.00079614        0        0       -1       58       26
Fe       1.29413775      31.89714965     110.67263858      -0.00040827       0.00006277       0.00069105        0        0       -1       58       26
Fe      -0.11795876      33.18449693     112.20239804      -0.00198228      -0.00035396       0.00102415        0        0       -1       58       26
Fe       1.29423645       0.64923995     110.92723129      -0.00042052      -0.00284189       0.00105694        0        0       -1       58       26
Fe      -0.11843295       1.93539114     112.44856986       0.00113029      -0.00053944      -0.00059600        0        0       -1       58       26
Fe       1.29476917       3.46547678     111.15889514       0.00065336      -0.00103708      -0.00046338        0        0       -1       58       26
Fe      -0.11737540       4.75913792     112.67332610      -0.00073187      -0.00187633      -0.00010755        0        0       -1       58       26
Fe       1.29618536       6.27866195     111.36900821      -0.00318899       0.00054574       0.00016939        0        0       -1       58       26
Fe      -0.11648887       7.57782644     112.88424149      -0.00150463      -0.00043459       0.00267301        0        0       -1       58       26
Fe       1.29661190       9.09775076     111.57657992      -0.00316747      -0.00192063      -0.00105076        0        0       -1       58       26
Fe      -0.11681560      10.39525911     113.09873767       0.00132510      -0.00045019       0.00080119        0        0       -1       58       26
Fe       1.29634375      11.92049402     111.79497055      -0.00132947       0.00058756       0.00089739        0        0       -1       58       26
Fe      -0.11645118      13.21090123     113.32699800       0.00022612      -0.00040368      -0.00119998        0        0       -1       58       26
Fe       1.29621003      14.74050930     112.03139033       0.00088909      -0.00022996      -0.00063273        0        0       -1       58       26
Fe      -0.11601940      16.02518899     113.56864941      -0.00075363      -0.00103839      -0.00001680        0        0       -1       58       26
Fe       1.29721569      17.55476909     112.27979588      -0.00258334       0.00009774      -0.00066279        0        0       -1       58       26
Fe      -0.11559341      18.84042628     113.81387612      -0.00125253      -0.00205399       0.00028619        0        0       -1       58       26
Fe       1.29779342      20.36777789     112.52516286      -0.00038613      -0.00126758      -0.00128200        0        0       -1       58       26
Fe      -0.11551575      21.65691894     114.05348001      -0.00092201       0.00263572       0.00155075        0        0       -1       58       26
Fe       1.29728729      23.18185844     112.76013939       0.00099032       0.00077549       0.00062689        0        0       -1       58       26
Fe      -0.11531628      24.47533945     114.28751313      -0.00056816       0.00036760      -0.00088937        0        0       -1       58       26
Fe       1.29781956      25.99947976     112.99249998      -0.00017424       0.00032896       0.00011786        0        0       -1       58       26
Fe      -0.11521785      27.29354404     114.52255064       0.00054182       0.00040349      -0.00025110        0        0       -1       58       26
Fe       1.29827390      28.82086500     113.23207711      -0.00042491       0.00144491      -0.00110430        0        0       -1       58       26
Fe      -0.11460760      30.11441697     114.76352486      -0.00104604       0.00018950       0.00206633        0        0       -1       58       26
Fe       1.29898961      31.64634971     113.48011288      -0.00206375       0.00161304      -0.00002863        0        0       -1       58       26
Fe      -0.11364411      32.93990166     115.00973482      -0.00245760       0.00158251      -0.00205501        0        0       -1       58       26
Fe       1.29886994       0.39845554     113.72964401       0.00034231       0.00023037      -0.00326857        0        0       -1       58       26
Fe      -0.11350563       1.69299023     115.25195992      -0.00067699       0.00088714      -0.00108509        0        0       -1       58       26
Fe       1.29918112       3.22875480     113.96672414       0.00090109      -0.00073824      -0.00000135        0        0       -1       58       26
Fe      -0.11273656       4.52283118     115.48489983      -0.00185182      -0.00041934      -0.00160765        0        0       -1       58       26
Fe       1.29993232       6.05369204     114.18911145       0.00157721       0.00062030      -0.00060080        0        0       -1       58       26
Fe      -0.11202887       7.34573625     115.70839805      -0.00204356       0.00099396      -0.00094732        0        0       -1       58       26
Fe       1.30025555       8.87212234     114.40501375       0.00127392      -0.00044818       0.00013132        0        0       -1       58       26
Fe      -0.11232066      10.16102767     115.93055358       0.00033952       0.00203999      -0.00075718        0        0       -1       58       26
Fe       1.30050594      11.68524612     114.62744462       0.00096050       0.00195294       0.00057080        0        0       -1       58       26
Fe      -0.11177485      12.97311108     116.15914376      -0.00130178       0.00078239       0.00064084        0        0       -1       58       26
Fe       1.30084797      14.49787122     114.86188828       0.00061682      -0.00013879      -0.00135738        0        0       -1       58       26
Fe      -0.11173028      15.78655327     116.39567349      -0.00169632      -0.00143224      -0.00066149        0        0       -1       58       26
Fe       1.30144861      17.31256302     115.10347356       0.00009479      -0.00143553      -0.00179427        0        0       -1       58       26
Fe      -0.11167651      18.60278768     116.63491203      -0.00004789       0.00039883      -0.00020215        0        0       -1       58       26
Fe       1.30199985      20.13015652     115.34436629      -0.00201393      -0.00052288      -0.00044455        0        0       -1       58       26
Fe      -0.11156384      21.42169773     116.87312800      -0.00110298       0.00092451      -0.00122447        0        0       -1       58       26
Fe       1.30174036      22.94897432     115.58103522      -0.00040502       0.00123045      -0.00036004        0        0       -1       58       26
Fe      16.86888344      24.24113467     117.10883052      -0.00274217       0.00177308       0.00168854       -1        0       -1       58       26
Fe       1.30215683      25.76790746     115.81572294      -0.00130620      -0.00018070       0.00146030        0        0       -1       58       26
Fe      -0.11113158      27.06003880     117.34496800      -0.00222391       0.00027790      -0.00048757        0        0       -1       58       26
Fe       1.30201346      28.58685821     116.05303341      -0.00025212      -0.00143867      -0.00009620        0        0       -1       58       26
Fe      -0.11148765      29.88045658     117.58239398      -0.00013318      -0.00149530       0.00006612        0        0       -1       58       26
Fe       1.30283588      31.40838850     116.29385245      -0.00159542       0.00174498      -0.00007476        0        0       -1       58       26
Fe      -0.11062199      32.70411297     117.82115656      -0.00109779       0.00106255       0.00126474        0        0       -1       58       26
Fe       1.30357781       0.15846135     116.53554725      -0.00204925      -0.00009978       0.00003611        0        0       -1       58       26
Fe      -0.10986108       1.45377598     118.05972635      -0.00133030       0.00086800       0.00169306        0        0       -1       58       26
Fe       1.30411174       2.98837991     116.77345242      -0.00176244      -0.00012041      -0.00088719        0        0       -1       58       26
Fe      -0.10950663       4.28135752     118.29544184      -0.00007610       0.00148211      -0.00014688        0        0       -1       58       26
Fe       1.30495824       5.81518058     117.00485593      -0.00343856       0.00070367      -0.00238365        0        0       -1       58       26
Fe      -0.10874978       7.10526393     118.52714067      -0.00131049       0.00035442       0.00034218        0        0       -1       58       26
Fe       1.30525765       8.63562662     117.23123758      -0.00293720      -0.00185309      -0.00074841        0        0       -1       58       26
Fe      -0.10819382       9.92341760     118.75711219      -0.00277088      -0.00152028      -0.00152674        0        0       -1       58       26
Fe       1.30523071      11.44931943     117.45826232      -0.00138966      -0.00028056       0.00098372        0        0       -1       58       26
Fe      -0.10803424      12.73748317     118.98774304      -0.00246034      -0.00057911       0.00077964        0        0       -1       58       26
Fe       1.30525249      14.26196572     117.69053126      -0.00024309      -0.00109784       0.00051786        0        0       -1       58       26
Fe      -0.10850122      15.55184914     119.22133640      -0.00015118      -0.00060813       0.00011855        0        0       -1       58       26
Fe       1.30570573      17.07668415     117.92671396      -0.00216154      -0.00047877       0.00091978        0        0       -1       58       26
Fe      -0.10827948      18.36798044     119.45695322      -0.00283511       0.00204682       0.00082663        0        0       -1       58       26
Fe       1.30544337      19.89456025     118.16449715      -0.00233522       0.00075588      -0.00037014        0        0       -1       58       26
Fe      -0.10855858      21.18689674     119.69372572      -0.00227813       0.00125474      -0.00099478        0        0       -1       58       26
Fe       1.30520101      22.71388766     118.40136199      -0.00101511       0.00133327       0.00062983        0        0       -1       58       26
Fe      -0.10859223      24.00637506     119.93000197      -0.00139201       0.00014737      -0.00070780        0        0       -1       58       26
Fe       1.30539210      25.53342375     118.63736113      -0.00251734       0.00027625       0.00097094        0        0       -1       58       26
Fe      -0.10857325      26.82617192     120.16587377      -0.00218347       0.00005436      -0.00139486        0        0       -1       58       26
Fe       1.30477556      28.35363193     118.87378139       0.00022968      -0.00128371      -0.00064063        0        0       -1       58       26
Fe      -0.10907130      29.64736554     120.40160064       0.00055396       0.00071148       0.00078996        0        0       -1       58       26
Fe       1.30514281      31.17495846     119.11040365       0.00010894       0.00233983       0.00202976        0        0       -1       58       26
Fe      -0.10841649      32.47017966     120.63785033       0.00011359      -0.00004020      -0.00066846        0        0       -1       58       26
Fe       1.30615930      33.99945813     119.34767190      -0.00074595       0.00230996       0.00217176        0        0       -1       58       26
Fe      -0.10738227       1.21648422     120.87419208      -0.00173165       0.00097439       0.00011632        0        0       -1       58       26
Fe       1.30699250       2.74825690     119.58459422      -0.00162298       0.00118269       0.00024427        0        0       -1       58       26
Fe      -0.10696928       4.04101610     121.11002974      -0.00127690       0.00199474       0.00100938        0        0       -1       58       26
Fe       1.30746541       5.57327645     119.81922719      -0.00146456       0.00124958       0.00122083        0        0       -1       58       26
Fe      -0.10692862       6.86372575     121.34466970       0.00073228       0.00140861       0.00271932        0        0       -1       58       26
Fe       1.30788223       8.39448925     120.05212994      -0.00182278       0.00053035       0.00146331        0        0       -1       58       26
Fe      -0.10620809       9.68317747     121.57898249      -0.00131675       0.00168178       0.00113122        0        0       -1       58       26
Fe       1.30785607      11.21181535     120.28445972      -0.00088301      -0.00062614      -0.00048853        0        0       -1       58       26
Fe      -0.10630745      12.50057592     121.81236940      -0.00112356       0.00128838       0.00071005        0        0       -1       58       26
Fe       1.30812920      14.02701556     120.51707823      -0.00292751       0.00002265      -0.00039715        0        0       -1       58       26
Fe      -0.10634970      15.31742756     122.04582339      -0.00245219      -0.00028631       0.00004249        0        0       -1       58       26
Fe       1.30786677      16.84291374     120.75105562      -0.00172901      -0.00023469      -0.00001678        0        0       -1       58       26
Fe      -0.10687652      18.13483803     122.28026474      -0.00224756      -0.00049978      -0.00054487        0        0       -1       58       26
Fe       1.30727878      19.66058154     120.98643456      -0.00103347      -0.00003217       0.00035527        0        0       -1       58       26
Fe      -0.10720465      20.95335808     122.51552973      -0.00109566      -0.00024379      -0.00057535        0        0       -1       58       26
Fe       1.30707139      22.47952892     121.22258523      -0.00069369       0.00147790      -0.00126332        0        0       -1       58       26
Fe      -0.10717003      23.77267598     122.75101985      -0.00099119      -0.00058747      -0.00094346        0        0       -1       58       26
Fe       1.30724298      25.29954368     121.45795941      -0.00089599      -0.00125488       0.00090051        0        0       -1       58       26
Fe      -0.10714615      26.59241961     122.98603107       0.00031614       0.00119154       0.00054494        0        0       -1       58       26
Fe       1.30713452      28.12000402     121.69336334      -0.00143820       0.00112849       0.00166763        0        0       -1       58       26
Fe      -0.10696955      29.41376781     123.22093850       0.00022333      -0.00052489       0.00074080        0        0       -1       58       26
Fe       1.30734748      30.94163072     121.92887859       0.00060568      -0.00040357       0.00054172        0        0       -1       58       26
Fe      -0.10630804      32.23528144     123.45639279       0.00019362       0.00083558       0.00024169        0        0       -1       58       26
Fe       1.30823498      33.76430558     122.16496302       0.00008107      -0.00094535      -0.00082115        0        0       -1       58       26
Fe      -0.10535695       0.97999632     123.69251516      -0.00039132       0.00062180      -0.00146291        0        0       -1       58       26
Fe       1.30871951       2.51022330     122.40115408       0.00014776       0.00012419      -0.00088263        0        0       -1       58       26
Fe      -0.10480456       3.80295598     123.92866589      -0.00113394      -0.00063339      -0.00013166        0        0       -1       58       26
Fe       1.30887140       5.33354884     122.63687655       0.00043128      -0.00085914       0.00160323        0        0       -1       58       26
Fe      -0.10489262       6.62477733     124.16511193      -0.00057409      -0.00057261      -0.00171473        0        0       -1       58       26
Fe       1.30906459       8.15404538     122.87234400      -0.00018856       0.00136916       0.00117378        0        0       -1       58       26
Fe      -0.10483074       9.44482157     124.40046600      -0.00169651      -0.00023579      -0.00056499        0        0       -1       58       26
Fe       1.30899945      10.97343952     123.10694901      -0.00028337      -0.00061738       0.00039855        0        0       -1       58       26
Fe      -0.10537644      12.26373813     124.63454299      -0.00068043       0.00090420      -0.00014766        0        0       -1       58       26