576
Lattice="16.98 0.0 0.0 0.0 8.00444876 0.0 0.0 0.0 48.04754926" Properties=species:S:1:pos:R:3:force:R:3:map_shift:I:3:n_neighb:I:1:Z:I:1 nneightol=1.2 virial="-2.66211752 -0.0 6e-08 -0.0 -1.43881743 0.0 6e-08 0.0 -5.6406134" energy=-2311.47647773 cutoff=5.3 pbc="T T T"
Fe       0.15340113      -0.00000000      35.03470359      -0.00006128      -0.00000000      -0.00013308        0        0       -1       58       26 
Fe       1.56840113       2.00111219      35.03470359      -0.00006128      -0.00000000      -0.00013308        0        0       -1       58       26 
Fe       0.15347144       2.00111219      37.03667143      -0.00013684       0.00000000       0.00015565        0        0       -1       58       26 
Fe       1.56847144       0.00000000      37.03667143      -0.00013684      -0.00000000       0.00015565        0        0       -1       58       26 
Fe       0.15347629       0.00000000      39.03866822      -0.00015027      -0.00000000      -0.00017396        0        0       -1       58       26 
Fe       1.56847629       2.00111219      39.03866822      -0.00015027      -0.00000000      -0.00017396        0        0       -1       58       26 
Fe       0.15340923       2.00111219      41.04063281      -0.00008756       0.00000000       0.00010428        0        0       -1       58       26 
Fe       1.56840923      -0.00000000      41.04063281      -0.00008756       0.00000000       0.00010428        0        0       -1       58       26 
Fe       0.15330027      -0.00000000      43.04261680       0.00002242      -0.00000000      -0.00003454        0        0       -1       58       26 
Fe       1.56830027       2.00111219      43.04261680       0.00002242       0.00000000      -0.00003454        0        0       -1       58       26 
Fe       0.15320202       2.00111219      45.04459447       0.00012322      -0.00000000      -0.00009086        0        0       -1       58       26 
Fe       1.56820202      -0.00000000      45.04459447       0.00012322       0.00000000      -0.00009086        0        0       -1       58       26 
Fe       0.15316274       0.00000000      47.04655530       0.00016367      -0.00000000       0.00018117        0        0       -1       58       26 
Fe       1.56816274       2.00111219      47.04655530       0.00016367       0.00000000       0.00018117        0        0       -1       58       26 
Fe       0.15330154       2.00111219      33.03271111       0.00003063      -0.00000000       0.00004754        0        0       -1       58       26 
Fe       1.56830154      -0.00000000      33.03271111       0.00003063      -0.00000000       0.00004754        0        0       -1       58       26 
Fe       0.15321667       0.00000000      31.03072749       0.00008864      -0.00000000       0.00003150        0        0       -1       58       26 
Fe       1.56821667       2.00111219      31.03072749       0.00008864       0.00000000       0.00003150        0        0       -1       58       26 
Fe       0.15317424       2.00111219      29.02874977       0.00008710       0.00000000      -0.00013394        0        0       -1       58       26 
Fe       1.56817424       0.00000000      29.02874977       0.00008710      -0.00000000      -0.00013394        0        0       -1       58       26 
Fe       0.15317351       0.00000000      27.02674721       0.00003888      -0.00000000       0.00019447        0        0       -1       58       26 
Fe       1.56817351       2.00111219      27.02674721       0.00003888       0.00000000       0.00019447        0        0       -1       58       26 
Fe       0.15319135       2.00111219      25.02478079      -0.00001683      -0.00000000      -0.00023798        0        0       -1       58       26 
Fe       1.56819135      -0.00000000      25.02478079      -0.00001683       0.00000000      -0.00023798        0        0       -1       58       26 
Fe       0.15340161      -0.00000000      11.01085802      -0.00006162       0.00000000       0.00021384        0        0        0       58       26 
Fe       1.56840161       2.00111219      11.01085802      -0.00006162      -0.00000000       0.00021384        0        0        0       58       26 
Fe       0.15330205       2.00111219      13.01285680       0.00003030       0.00000000      -0.00015585        0        0        0       58       26 
Fe       1.56830205      -0.00000000      13.01285680       0.00003030       0.00000000      -0.00015585        0        0        0       58       26 
Fe       0.15321704      -0.00000000      15.01482647       0.00008843      -0.00000000       0.00016458        0        0        0       58       26 
Fe       1.56821704       2.00111219      15.01482647       0.00008843       0.00000000       0.00016458        0        0        0       58       26 
Fe       0.15317439       2.00111219      17.01682672       0.00008720       0.00000000      -0.00016075        0        0        0       58       26 
Fe       1.56817439       8.00444876      17.01682672       0.00008720      -0.00000000      -0.00016075        0       -1        0       58       26 
Fe       0.15317348       8.00444876      19.01879700       0.00003917      -0.00000000       0.00020291        0       -1        0       58       26 
Fe       1.56817348       2.00111219      19.01879700       0.00003917       0.00000000       0.00020291        0        0        0       58       26 
Fe       0.15319127       2.00111219      21.02080498      -0.00001658       0.00000000      -0.00023018        0        0        0       58       26 
Fe       1.56819127       8.00444876      21.02080498      -0.00001658      -0.00000000      -0.00023018        0       -1        0       58       26 
Fe       0.15320106       0.00000000      23.02277019      -0.00004059      -0.00000000       0.00024437        0        0        0       58       26 
Fe       1.56820106       2.00111219      23.02277019      -0.00004059       0.00000000       0.00024437        0        0        0       58       26 
Fe       0.15347173       2.00111219       9.00889893      -0.00013705      -0.00000000      -0.00023331        0        0        0       58       26 
Fe       1.56847173       0.00000000       9.00889893      -0.00013705      -0.00000000      -0.00023331        0        0        0       58       26 
Fe       0.15347629      -0.00000000       7.00689637      -0.00015020      -0.00000000       0.00030491        0        0        0       58       26 
Fe       1.56847629       2.00111219       7.00689637      -0.00015020       0.00000000       0.00030491        0        0        0       58       26 
Fe       0.15340898       2.00111219       5.00495039      -0.00008722       0.00000000      -0.00031579        0        0        0       58       26 
Fe       1.56840898       8.00444876       5.00495039      -0.00008722      -0.00000000      -0.00031579        0       -1        0       58       26 
Fe       0.15329992       8.00444876       3.00294570       0.00002279       0.00000000       0.00032083        0       -1        0       58       26 
Fe       1.56829992       2.00111219       3.00294570       0.00002279       0.00000000       0.00032083        0        0        0       58       26 
Fe       0.15320176       2.00111219       1.00100056       0.00012358       0.00000000      -0.00026582        0        0        0       58       26 
Fe       1.56820176       8.00444876       1.00100056       0.00012358      -0.00000000      -0.00026582        0       -1        0       58       26 
Fe       0.15340113       4.00222438      35.03470359      -0.00006128      -0.00000000      -0.00013308        0       -1       -1       58       26 
Fe       1.56840113       6.00333657      35.03470359      -0.00006128       0.00000000      -0.00013308        0       -1       -1       58       26 
Fe       0.15347144       6.00333657      37.03667143      -0.00013684      -0.00000000       0.00015565        0       -1       -1       58       26 
Fe       1.56847144       4.00222438      37.03667143      -0.00013684       0.00000000       0.00015565        0        0       -1       58       26 
Fe       0.15347629       4.00222438      39.03866822      -0.00015027      -0.00000000      -0.00017396        0        0       -1       58       26 
Fe       1.56847629       6.00333657      39.03866822      -0.00015027       0.00000000      -0.00017396        0       -1       -1       58       26 
Fe       0.15340923       6.00333657      41.04063281      -0.00008756      -0.00000000       0.00010428        0       -1       -1       58       26 
Fe       1.56840923       4.00222438      41.04063281      -0.00008756      -0.00000000       0.00010428        0       -1       -1       58       26 
Fe       0.15330027       4.00222438      43.04261680       0.00002242       0.00000000      -0.00003454        0        0       -1       58       26 
Fe       1.56830027       6.00333657      43.04261680       0.00002242      -0.00000000      -0.00003454        0       -1       -1       58       26 
Fe       0.15320202       6.00333657      45.04459447       0.00012322       0.00000000      -0.00009086        0       -1       -1       58       26 
Fe       1.56820202       4.00222438      45.04459447       0.00012322      -0.00000000      -0.00009086        0       -1       -1       58       26 
Fe       0.15316274       4.00222438      47.04655530       0.00016367      -0.00000000       0.00018117        0       -1       -1       58       26 
Fe       1.56816274       6.00333657      47.04655530       0.00016367       0.00000000       0.00018117        0       -1       -1       58       26 
Fe       0.15330154       6.00333657      33.03271111       0.00003063       0.00000000       0.00004754        0       -1       -1       58       26 
Fe       1.56830154       4.00222438      33.03271111       0.00003063      -0.00000000       0.00004754        0       -1       -1       58       26 
Fe       0.15321667       4.00222438      31.03072749       0.00008864       0.00000000       0.00003150        0       -1       -1       58       26 
Fe       1.56821667       6.00333657      31.03072749       0.00008864       0.00000000       0.00003150        0       -1       -1       58       26 
Fe       0.15317424       6.00333657      29.02874977       0.00008710      -0.00000000      -0.00013394        0       -1       -1       58       26 
Fe       1.56817424       4.00222438      29.02874977       0.00008710       0.00000000      -0.00013394        0        0       -1       58       26 
Fe       0.15317351       4.00222438      27.02674721       0.00003888      -0.00000000       0.00019447        0       -1       -1       58       26 
Fe       1.56817351       6.00333657      27.02674721       0.00003888       0.00000000       0.00019447        0       -1       -1       58       26 
Fe       0.15319135       6.00333657      25.02478079      -0.00001683       0.00000000      -0.00023798        0       -1       -1       58       26 
Fe       1.56819135       4.00222438      25.02478079      -0.00001683      -0.00000000      -0.00023798        0       -1       -1       58       26 
Fe       0.15340161       4.00222438      11.01085802      -0.00006162      -0.00000000       0.00021384        0       -1        0       58       26 
Fe       1.56840161       6.00333657      11.01085802      -0.00006162       0.00000000       0.00021384        0       -1        0       58       26 
Fe       0.15330205       6.00333657      13.01285680       0.00003030      -0.00000000      -0.00015585        0       -1        0       58       26 
Fe       1.56830205       4.00222438      13.01285680       0.00003030      -0.00000000      -0.00015585        0       -1        0       58       26 
Fe       0.15321704       4.00222438      15.01482647       0.00008843      -0.00000000       0.00016458        0       -1        0       58       26 
Fe       1.56821704       6.00333657      15.01482647       0.00008843       0.00000000       0.00016458        0       -1        0       58       26 
Fe       0.15317439       6.00333657      17.01682672       0.00008720       0.00000000      -0.00016075        0       -1        0       58       26 
Fe       1.56817439       4.00222438      17.01682672       0.00008720      -0.00000000      -0.00016075        0       -1        0       58       26 
Fe       0.15317348       4.00222438      19.01879700       0.00003917      -0.00000000       0.00020291        0       -1        0       58       26 
Fe       1.56817348       6.00333657      19.01879700       0.00003917       0.00000000       0.00020291        0       -1        0       58       26 
Fe       0.15319127       6.00333657      21.02080498      -0.00001658       0.00000000      -0.00023018        0       -1        0       58       26 
Fe       1.56819127       4.00222438      21.02080498      -0.00001658      -0.00000000      -0.00023018        0       -1        0       58       26 
Fe       0.15320106       4.00222438      23.02277019      -0.00004059      -0.00000000       0.00024437        0       -1        0       58       26 
Fe       1.56820106       6.00333657      23.02277019      -0.00004059       0.00000000       0.00024437        0       -1        0       58       26 
Fe       0.15347173       6.00333657       9.00889893      -0.00013705       0.00000000      -0.00023331        0       -1        0       58       26 
Fe       1.56847173       4.00222438       9.00889893      -0.00013705       0.00000000      -0.00023331        0       -1        0       58       26 
Fe       0.15347629       4.00222438       7.00689637      -0.00015020       0.00000000       0.00030491        0        0        0       58       26 
Fe       1.56847629       6.00333657       7.00689637      -0.00015020      -0.00000000       0.00030491        0       -1        0       58       26 
Fe       0.15340898       6.00333657       5.00495039      -0.00008722      -0.00000000      -0.00031579        0       -1        0       58       26 
Fe       1.56840898       4.00222438       5.00495039      -0.00008722      -0.00000000      -0.00031579        0       -1        0       58       26 
Fe       0.15329992       4.00222438       3.00294570       0.00002279      -0.00000000       0.00032083        0       -1        0       58       26 
Fe       1.56829992       6.00333657       3.00294570       0.00002279       0.00000000       0.00032083        0       -1        0       58       26 
Fe       0.15320176       6.00333657       1.00100056       0.00012358       0.00000000      -0.00026582        0       -1        0       58       26 
Fe       1.56820176       4.00222438       1.00100056       0.00012358       0.00000000      -0.00026582        0       -1        0       58       26 
Fe       2.98340113       0.00000000      35.03470359      -0.00006128      -0.00000000      -0.00013308        0        0       -1       58       26 
Fe       4.39840113       2.00111219      35.03470359      -0.00006128       0.00000000      -0.00013308        0        0       -1       58       26 
Fe       2.98347144       2.00111219      37.03667143      -0.00013684       0.00000000       0.00015565        0        0       -1       58       26 
Fe       4.39847144       0.00000000      37.03667143      -0.00013684      -0.00000000       0.00015565        0        0       -1       58       26 
Fe       2.98347629      -0.00000000      39.03866822      -0.00015027       0.00000000      -0.00017396        0        0       -1       58       26 
Fe       4.39847629       2.00111219      39.03866822      -0.00015027       0.00000000      -0.00017396        0        0       -1       58       26 
Fe       2.98340923       2.00111219      41.04063281      -0.00008756      -0.00000000       0.00010428        0        0       -1       58       26 
Fe       4.39840923       0.00000000      41.04063281      -0.00008756       0.00000000       0.00010428        0        0       -1       58       26 
Fe       2.98330027      -0.00000000      43.04261680       0.00002242       0.00000000      -0.00003454        0        0       -1       58       26 
Fe       4.39830027       2.00111219      43.04261680       0.00002242      -0.00000000      -0.00003454        0        0       -1       58       26 
Fe       2.98320202       2.00111219      45.04459447       0.00012322       0.00000000      -0.00009086        0        0       -1       58       26 
Fe       4.39820202       0.00000000      45.04459447       0.00012322      -0.00000000      -0.00009086        0        0       -1       58       26 
Fe       2.98316274       0.00000000      47.04655530       0.00016367      -0.00000000       0.00018117        0        0       -1       58       26 
Fe       4.39816274       2.00111219      47.04655530       0.00016367       0.00000000       0.00018117        0        0       -1       58       26 
Fe       2.98330154       2.00111219      33.03271111       0.00003063       0.00000000       0.00004754        0        0       -1       58       26 
Fe       4.39830154      -0.00000000      33.03271111       0.00003063      -0.00000000       0.00004754        0        0       -1       58       26 
Fe       2.98321667       0.00000000      31.03072749       0.00008864      -0.00000000       0.00003150        0        0       -1       58       26 
Fe       4.39821667       2.00111219      31.03072749       0.00008864       0.00000000       0.00003150        0        0       -1       58       26 
Fe       2.98317424       2.00111219      29.02874977       0.00008710       0.00000000      -0.00013394        0        0       -1       58       26 
Fe       4.39817424      -0.00000000      29.02874977       0.00008710       0.00000000      -0.00013394        0        0       -1       58       26 
Fe       2.98317351       0.00000000      27.02674721       0.00003888      -0.00000000       0.00019447        0        0       -1       58       26 
Fe       4.39817351       2.00111219      27.02674721       0.00003888      -0.00000000       0.00019447        0        0       -1       58       26 
Fe       2.98319135       2.00111219      25.02478079      -0.00001683       0.00000000      -0.00023798        0        0       -1       58       26 
Fe       4.39819135       0.00000000      25.02478079      -0.00001683      -0.00000000      -0.00023798        0        0       -1       58       26 
Fe       2.98340161       0.00000000      11.01085802      -0.00006162      -0.00000000       0.00021384        0        0        0       58       26 
Fe       4.39840161       2.00111219      11.01085802      -0.00006162       0.00000000       0.00021384        0        0        0       58       26 
Fe       2.98330205       2.00111219      13.01285680       0.00003030       0.00000000      -0.00015585        0        0        0       58       26 
Fe       4.39830205       0.00000000      13.01285680       0.00003030      -0.00000000      -0.00015585        0        0        0       58       26 
Fe       2.98321704       0.00000000      15.01482647       0.00008843      -0.00000000       0.00016458        0        0        0       58       26 
Fe       4.39821704       2.00111219      15.01482647       0.00008843       0.00000000       0.00016458        0        0        0       58       26 
Fe       2.98317439       2.00111219      17.01682672       0.00008720       0.00000000      -0.00016075        0        0        0       58       26 
Fe       4.39817439       8.00444876      17.01682672       0.00008720      -0.00000000      -0.00016075        0       -1        0       58       26 
Fe       2.98317348       8.00444876      19.01879700       0.00003917      -0.00000000       0.00020291        0       -1        0       58       26 
Fe       4.39817348       2.00111219      19.01879700       0.00003917       0.00000000       0.00020291        0        0        0       58       26 
Fe       2.98319127       2.00111219      21.02080498      -0.00001658       0.00000000      -0.00023018        0        0        0       58       26 
Fe       4.39819127       8.00444876      21.02080498      -0.00001658      -0.00000000      -0.00023018        0       -1        0       58       26 
Fe       2.98320106       0.00000000      23.02277019      -0.00004059      -0.00000000       0.00024437        0        0        0       58       26 
Fe       4.39820106       2.00111219      23.02277019      -0.00004059       0.00000000       0.00024437        0        0        0       58       26 
Fe       2.98347173       2.00111219       9.00889893      -0.00013705       0.00000000      -0.00023331        0        0        0       58       26 
Fe       4.39847173      -0.00000000       9.00889893      -0.00013705       0.00000000      -0.00023331        0        0        0       58       26 
Fe       2.98347629      -0.00000000       7.00689637      -0.00015020       0.00000000       0.00030491        0        0        0       58       26 
Fe       4.39847629       2.00111219       7.00689637      -0.00015020      -0.00000000       0.00030491        0        0        0       58       26 
Fe       2.98340898       2.00111219       5.00495039      -0.00008722      -0.00000000      -0.00031579        0        0        0       58       26 
Fe       4.39840898       8.00444876       5.00495039      -0.00008722       0.00000000      -0.00031579        0       -1        0       58       26 
Fe       2.98329992       8.00444876       3.00294570       0.00002279      -0.00000000       0.00032083        0       -1        0       58       26 
Fe       4.39829992       2.00111219       3.00294570       0.00002279       0.00000000       0.00032083        0        0        0       58       26 
Fe       2.98320176       2.00111219       1.00100056       0.00012358      -0.00000000      -0.00026582        0        0        0       58       26 
Fe       4.39820176       8.00444876       1.00100056       0.00012358       0.00000000      -0.00026582        0       -1        0       58       26 
Fe       2.98340113       4.00222438      35.03470359      -0.00006128       0.00000000      -0.00013308        0        0       -1       58       26 
Fe       4.39840113       6.00333657      35.03470359      -0.00006128      -0.00000000      -0.00013308        0       -1       -1       58       26 
Fe       2.98347144       6.00333657      37.03667143      -0.00013684       0.00000000       0.00015565        0       -1       -1       58       26 
Fe       4.39847144       4.00222438      37.03667143      -0.00013684      -0.00000000       0.00015565        0        0       -1       58       26 
Fe       2.98347629       4.00222438      39.03866822      -0.00015027      -0.00000000      -0.00017396        0       -1       -1       58       26 
Fe       4.39847629       6.00333657      39.03866822      -0.00015027       0.00000000      -0.00017396        0       -1       -1       58       26 
Fe       2.98340923       6.00333657      41.04063281      -0.00008756       0.00000000       0.00010428        0       -1       -1       58       26 
Fe       4.39840923       4.00222438      41.04063281      -0.00008756       0.00000000       0.00010428        0        0       -1       58       26 
Fe       2.98330027       4.00222438      43.04261680       0.00002242      -0.00000000      -0.00003454        0       -1       -1       58       26 
Fe       4.39830027       6.00333657      43.04261680       0.00002242      -0.00000000      -0.00003454        0       -1       -1       58       26 
Fe       2.98320202       6.00333657      45.04459447       0.00012322      -0.00000000      -0.00009086        0       -1       -1       58       26 
Fe       4.39820202       4.00222438      45.04459447       0.00012322      -0.00000000      -0.00009086        0       -1       -1       58       26 
Fe       2.98316274       4.00222438      47.04655530       0.00016367       0.00000000       0.00018117        0        0       -1       58       26 
Fe       4.39816274       6.00333657      47.04655530       0.00016367       0.00000000       0.00018117        0       -1       -1       58       26 
Fe       2.98330154       6.00333657      33.03271111       0.00003063       0.00000000       0.00004754        0       -1       -1       58       26 
Fe       4.39830154       4.00222438      33.03271111       0.00003063       0.00000000       0.00004754        0       -1       -1       58       26 
Fe       2.98321667       4.00222438      31.03072749       0.00008864      -0.00000000       0.00003150        0        0       -1       58       26 
Fe       4.39821667       6.00333657      31.03072749       0.00008864      -0.00000000       0.00003150        0       -1       -1       58       26 
Fe       2.98317424       6.00333657      29.02874977       0.00008710       0.00000000      -0.00013394        0       -1       -1       58       26 
Fe       4.39817424       4.00222438      29.02874977       0.00008710      -0.00000000      -0.00013394        0       -1       -1       58       26 
Fe       2.98317351       4.00222438      27.02674721       0.00003888       0.00000000       0.00019447        0       -1       -1       58       26 
Fe       4.39817351       6.00333657      27.02674721       0.00003888       0.00000000       0.00019447        0       -1       -1       58       26 
Fe       2.98319135       6.00333657      25.02478079      -0.00001683      -0.00000000      -0.00023798        0       -1       -1       58       26 
Fe       4.39819135       4.00222438      25.02478079      -0.00001683       0.00000000      -0.00023798        0        0       -1       58       26 
Fe       2.98340161       4.00222438      11.01085802      -0.00006162       0.00000000       0.00021384        0        0        0       58       26 
Fe       4.39840161       6.00333657      11.01085802      -0.00006162      -0.00000000       0.00021384        0       -1        0       58       26 
Fe       2.98330205       6.00333657      13.01285680       0.00003030       0.00000000      -0.00015585        0       -1        0       58       26 
Fe       4.39830205       4.00222438      13.01285680       0.00003030      -0.00000000      -0.00015585        0       -1        0       58       26 
Fe       2.98321704       4.00222438      15.01482647       0.00008843      -0.00000000       0.00016458        0       -1        0       58       26 
Fe       4.39821704       6.00333657      15.01482647       0.00008843      -0.00000000       0.00016458        0       -1        0       58       26 
Fe       2.98317439       6.00333657      17.01682672       0.00008720       0.00000000      -0.00016075        0       -1        0       58       26 
Fe       4.39817439       4.00222438      17.01682672       0.00008720       0.00000000      -0.00016075        0        0        0       58       26 
Fe       2.98317348       4.00222438      19.01879700       0.00003917      -0.00000000       0.00020291        0       -1        0       58       26 
Fe       4.39817348       6.00333657      19.01879700       0.00003917       0.00000000       0.00020291        0       -1        0       58       26 
Fe       2.98319127       6.00333657      21.02080498      -0.00001658       0.00000000      -0.00023018        0       -1        0       58       26 
Fe       4.39819127       4.00222438      21.02080498      -0.00001658      -0.00000000      -0.00023018        0       -1        0       58       26 
Fe       2.98320106       4.00222438      23.02277019      -0.00004059      -0.00000000       0.00024437        0       -1        0       58       26 
Fe       4.39820106       6.00333657      23.02277019      -0.00004059       0.00000000       0.00024437        0       -1        0       58       26 
Fe       2.98347173       6.00333657       9.00889893      -0.00013705      -0.00000000      -0.00023331        0       -1        0       58       26 
Fe       4.39847173       4.00222438       9.00889893      -0.00013705       0.00000000      -0.00023331        0        0        0       58       26 
Fe       2.98347629       4.00222438       7.00689637      -0.00015020       0.00000000       0.00030491        0        0        0       58       26 
Fe       4.39847629       6.00333657       7.00689637      -0.00015020       0.00000000       0.00030491        0       -1        0       58       26 
Fe       2.98340898       6.00333657       5.00495039      -0.00008722      -0.00000000      -0.00031579        0       -1        0       58       26 
Fe       4.39840898       4.00222438       5.00495039      -0.00008722      -0.00000000      -0.00031579        0       -1        0       58       26 
Fe       2.98329992       4.00222438       3.00294570       0.00002279      -0.00000000       0.00032083        0       -1        0       58       26 
Fe       4.39829992       6.00333657       3.00294570       0.00002279      -0.00000000       0.00032083        0       -1        0       58       26 
Fe       2.98320176       6.00333657       1.00100056       0.00012358       0.00000000      -0.00026582        0       -1        0       58       26 
Fe       4.39820176       4.00222438       1.00100056       0.00012358      -0.00000000      -0.00026582        0       -1        0       58       26 
Fe       5.81340113      -0.00000000      35.03470359      -0.00006128      -0.00000000      -0.00013308        0        0       -1       58       26 
Fe       7.22840113       2.00111219      35.03470359      -0.00006128       0.00000000      -0.00013308        0        0       -1       58       26 
Fe       5.81347144       2.00111219      37.03667143      -0.00013684       0.00000000       0.00015565        0        0       -1       58       26 
Fe       7.22847144      -0.00000000      37.03667143      -0.00013684      -0.00000000       0.00015565        0        0       -1       58       26 