124
Lattice="11.3344 0.0 0.0 0.0 11.3344 0.0 0.0 0.0 11.3344" Properties=species:S:1:pos:R:3:force:R:3:Z:I:1 config_type=quadvacancy_124_high config_name=quadvacancy_124_high_0000 ecutwfc=1224.51225528 pbc="T T T" kpoints="3 3 3" timestamp=1474629313.52 degauss=0.136056917253 energy=-429132.256185
Fe     1.298461213      1.425467291      3.893791746     -0.355276315      0.195451917      0.844099582       26
Fe    -0.139101979      0.070280341      5.537420361      2.087966105     -0.095835555      0.746997759       26
Fe     1.387407566      1.477928176      7.046553171     -0.013847704     -0.894143534     -0.462499542       26
Fe    -0.025197301     -0.189085811      8.316141848     -0.286959534      1.541921138      0.390084166       26
Fe     1.435086003      1.285019114      9.740836224     -1.054606594      0.656547637      0.240487616       26
Fe     0.146836313      2.757222296      0.084713521      1.111018396     -1.480114647     -1.972961948       26
Fe     1.342268284      4.066791595      1.509071537      1.201600416      0.380448700      0.141718947       26
Fe     1.389663327      4.306580212      4.303165395      0.705646194     -1.123493902     -1.239154719       26
Fe    -0.059528291      2.944770402      5.892795489      0.287402792     -1.123062471     -1.811369145       26
Fe     1.443577395      4.255006788      7.103751314     -0.143795627      0.699318452      0.046594045       26
Fe    -0.035734983      2.859291900      8.374832675      0.239841755     -0.524352056      0.985382470       26
Fe     1.490231146      4.176343037      9.981814851     -0.157640503      0.113897040     -0.390889178       26
Fe     0.062092586      5.538016301      0.040722980      0.385879641      0.934469229     -0.253921630       26
Fe     1.416356961      7.303975644      1.353685686      0.371002981     -1.127682486      0.472204685       26
Fe     0.088646410      5.650532311      2.729956875     -0.271171161     -0.467851808     -0.275427365       26
Fe     1.265919255      6.942437447      4.070107882      2.340073822      0.968713237      1.427638175       26
Fe    -0.074244706      5.485575625      5.597725716     -0.023096476      1.324107823      0.528628315       26
Fe     1.330032368      7.183350720      6.880673468      0.572724533     -1.029443464      0.918796556       26
Fe     0.084271604      5.707388178      8.476348752      0.122626449      0.517549431     -0.412791635       26
Fe     1.449345358      7.278068764     10.056493608     -0.398494244     -1.306131184     -0.801646813       26
Fe    -0.122405875      8.498235059      0.033143894      1.704927276      0.633166282      0.890260911       26
Fe     0.905551166     10.495163541      1.328698457      1.235613282     -0.321840404     -0.083580649       26
Fe     0.105345643      8.493172277      2.796327041     -0.779689593      0.726850852     -0.309631521       26
Fe     1.397004765     10.043002351      4.106802378      0.234482034     -0.175253845      0.415922981       26
Fe     0.070177493      8.585757970      5.504695035     -0.623898998     -0.235932650      0.418641665       26
Fe     1.502097809      9.944147794      6.985638932     -1.230212165      0.514607318     -0.060227062       26
Fe    -0.006848834      8.462385984      8.470103464     -0.491190996      0.698770035     -0.600360035       26
Fe     1.230817412      9.992843335      9.880799912      0.336133681      0.322269778      0.573234640       26
Fe     2.626627078      0.096816529     -0.068985295      0.823992270     -0.209404008      0.803264294       26
Fe     4.133459085      1.281288759      1.545481733      1.059890210      0.753967763     -1.035026615       26
Fe     2.841803975     -0.113702666      2.717058962     -1.129544479      0.718634121      0.767668914       26
Fe     4.139208539      1.431792068      4.231155198      1.024185816      0.109796388      0.278387476       26
Fe     2.877496250      0.149057255      5.692668340     -0.708221668     -0.306566766     -0.594795396       26
Fe     4.434943232      1.592833229      7.155180927     -1.346710905     -1.542090573     -1.096046862       26
Fe     2.965431903      0.063667048      8.444651389     -1.361979658     -0.222516634     -0.495083647       26
Fe     4.197683808      1.514198086      9.820121700     -0.126670795     -1.396796251      1.227508393       26
Fe     2.863801098      2.596234383      0.128177125     -0.958674108      1.112244298     -0.384126406       26
Fe     4.290331329      4.248223671      1.419200173     -0.577236048     -0.938809251     -1.519571567       26
Fe     2.896442538      2.829260874      2.756664609     -0.550857815      0.067302995      0.718626408       26
Fe     4.274579415      4.354304587      4.154390933     -0.296046069     -0.989958262      0.441972884       26
Fe     2.818943272      2.899322745      5.645111045     -0.160202350     -0.859417701     -0.677031101       26
Fe     4.186021571      4.190178565      7.033420251      0.601104369      0.336160163      1.189889555       26
Fe     2.766533630      2.784010062      8.405454925      0.350626989      0.807888680      0.730314900       26
Fe     4.094161315      4.181057501      9.926719398      0.447346489      0.496971608      0.653606809       26
Fe     2.740646722      5.747455645      0.066647292      0.256453652     -0.882709838     -1.164694287       26
Fe     4.192526769      6.957509445      1.347423271      1.245243863      2.113124092     -0.251839551       26
Fe     2.949337803      5.646636667      2.548460341     -1.964334611     -0.031991979      2.826969790       26
Fe     4.207704925      7.197197242      4.254980310      0.662353702     -1.815759304      0.470131862       26
Fe     2.879405892      5.549031263      5.663506561     -0.631371652      1.733313283     -0.355548080       26
Fe     4.107398137      6.994749273      7.227298790      1.292732394      1.177619480     -0.942800375       26
Fe     2.832574339      5.806660974      8.520738796     -0.996642873     -0.970153055      0.932902656       26
Fe     4.254757408      7.288974679     10.112849616     -0.632896316     -1.318507189     -1.560998980       26
Fe     2.785861910      8.784579089      0.032964776     -1.380544051     -1.387822586      0.584633111       26
Fe     4.131236828      9.925686868      1.398581936      0.303949897      0.244539418     -0.506881153       26
Fe     2.968657548      8.430732575      2.924181090     -1.837248070      1.118128267     -1.062242770       26
Fe     4.288790769      9.978545069      4.353308361     -0.881785526     -0.494494350     -0.057214501       26
Fe     2.854654804      8.598407115      5.694217945     -0.740557146     -1.013484370     -0.954356712       26
Fe     4.166774513      9.934385034      7.006996705      0.700357949      0.138303236      1.514448901       26
Fe     2.625778880      8.626431260      8.567531110      1.483570210     -0.743369419     -0.798228274       26
Fe     4.010700834      9.953524891      9.944985384      2.047745568      0.822977713     -0.472499334       26
Fe     5.533260704      0.139917659     -0.021960389     -0.624546659     -1.707338971     -0.050242955       26
Fe     6.987805707      1.358306256      1.360200733     -0.176363790      0.089880366      1.938138670       26
Fe     5.495802631     -0.239955675      2.858711953      1.548196429      2.396779244     -0.470116950       26
Fe     7.037754787      1.278837479      4.207886241     -0.403408137      1.137480703      0.081020859       26
Fe     5.733548177     -0.066824777      5.838982772     -0.216363470      0.507913451     -1.273679235       26
Fe     7.091266212      1.408999983      7.184145250      0.221005082      0.263415685     -0.383841528       26
Fe     5.677856728     -0.062177254      8.476423163     -0.064334657      0.198253648      0.723588380       26
Fe     6.988536809      1.415658218     10.153936918      1.113870006     -0.037904231     -1.800399277       26
Fe     5.608304712      2.753033532      0.043562089     -1.195478362      0.475930214     -0.347426480       26
Fe     6.969179252      4.033533201      1.239729832      1.858723465      1.111390949      1.588504641       26
Fe     5.602144636      2.824819909      2.789457646      0.446494426     -0.908189984      0.555469603       26
Fe     6.943930142      4.208990778      4.244623083      1.635770001     -0.328376663     -0.883994875       26
Fe     5.745417958      2.830504995      5.677785321     -0.493864687     -0.382579116     -0.188709970       26
Fe     7.048651486      4.331705879      7.245255121      0.081580845     -1.561357906     -0.221478165       26
Fe     5.605033842      2.799506181      8.666517372      1.128242730      0.941327390     -0.904723880       26
Fe     7.135262669      4.202000083     10.026775026      0.061109979      0.312485446     -0.088592500       26
Fe     5.709638272      5.646615630     -0.096938091     -0.588563814      0.098599748      0.834850553       26
Fe     7.175700986      7.123644909      1.322573846     -0.094393937     -0.359224501      0.682551003       26
Fe     5.670277312      5.585292196      2.637317854      0.820070824      1.147193302      1.230816889       26
Fe     6.957304791      7.026952899      4.354050855      0.338921785      0.049653143     -1.198865790       26
Fe     5.660811977      5.464996254      5.747378174     -0.637469538      2.045655518     -0.103767408       26
Fe     6.923223576      7.097639296      7.220671317      0.603883218     -0.393584209     -0.378339624       26
Fe     5.619870062      5.482661494      8.661312412     -0.461593743      1.676418113     -0.585218809       26
Fe     7.142268813      7.065634577      9.992146700     -0.037155011      0.535382346     -0.112035561       26
Fe     5.625415145      8.608595959      0.052518611     -0.362598816     -1.019523634     -1.168786969       26
Fe     6.927603687      9.923065901      1.139227719      1.508192893      1.035637766      2.812815096       26
Fe     5.509966494      8.565461936      2.696719223      1.679550745     -1.202038274      0.907575490       26
Fe     7.104169406      9.960207517      4.137890371     -0.148610789     -1.192005830      0.687121653       26
Fe     5.517492808      8.498352948      5.785178239      1.258533123     -0.482479842     -0.687225782       26
Fe     7.187177916      9.725384864      7.121084536     -0.217867051      1.176930681     -0.148343651       26
Fe     5.568507741      8.617364704      8.551218789      0.048225667     -0.904553930      0.312552294       26
Fe     7.101510265      9.949790467      9.937616573      0.033431797      0.257319343      0.002550277       26
Fe     8.566999878      0.141093320      0.231223494      0.220501146     -0.280116800     -0.845628360       26
Fe    10.795811244      1.332924692      1.929191739     -0.350651672     -0.180068236      0.168924046       26
Fe     8.596900127      0.093407096      2.848710104     -0.876453830     -0.055891668     -0.405727014       26
Fe     9.909361954      1.527475531      4.361059436      0.594463724     -0.660601238     -0.966695436       26
Fe     8.468952716     -0.006536220      5.567741875     -0.148173701     -0.370065557      0.790210289       26
Fe     9.885435115      1.319597568      7.031451239     -0.395817983      0.816664627      1.024414130       26
Fe     8.470071501      0.177300948      8.664350473      0.660084704     -1.522694686     -0.275778835       26
Fe    10.106254027      1.442843527      9.986707741      0.030959424     -0.698594429     -0.317113688       26
Fe     8.735906875      2.664662445      0.140742509     -0.452682299      0.680609306     -0.472401889       26
Fe    10.247034891      3.877685156      1.378225943     -1.957975245      1.685694910      1.049388540       26
Fe     8.597011873      2.650447544      2.816778175     -1.065251989      0.503544118     -0.783847838       26
Fe    10.149490671      3.994450648      3.931719029     -0.300942992      0.466856791      1.047407248       26
Fe     8.544468938      2.790940696      5.641099404     -1.311266448      0.476965854      0.418303308       26
Fe     9.681374624      4.309508919      7.104491099      1.735972832     -0.873419671      0.504538364       26
Fe     8.363201857      2.819671133      8.731970959      1.426427186     -0.046404555     -1.125981187       26
Fe    10.171373056      4.302079764      9.766279685     -1.834630172     -0.667356040      1.414897074       26
Fe     8.650338933      5.557122166      0.044236871     -0.103584860      0.053311566     -0.232759137       26
Fe    10.005160054      7.015452462      1.435667299     -0.467320875      0.386845347     -0.049785812       26
Fe     8.711211654      5.518754429      2.813620445     -1.387987394      0.126367404     -0.220735116       26
Fe    10.058052938      7.024506641      4.205302304     -1.433559426     -0.016095877     -0.193468825       26
Fe     8.374702726      5.482990033      5.702909481      0.429871215      1.545713001     -1.061398162       26
Fe     9.853718165      7.098415781      6.911565522      0.793957672     -0.430482881      1.094747170       26
Fe     8.606230084      5.788371185      8.516769218     -0.821446107     -0.351864204      0.560000915       26
Fe    10.105024879      7.159851505      9.966102142     -1.481264701     -1.014651137     -0.278100541       26
Fe     8.699742488      8.698622582      0.088166999     -1.467448622     -1.352385072     -0.221529587       26
Fe    10.010241741     10.160925720      1.599478996     -0.221597722     -0.726442818     -0.538146281       26
Fe     8.558729563      8.617529755      2.736698553     -0.518237459     -1.042514438      0.576743424       26
Fe    10.017172602      9.998369388      4.134242020     -0.373613679     -0.307000254     -0.022119200       26
Fe     8.554323213      8.329023473      5.548120182     -0.910616334      1.283208000     -0.065939539       26
Fe     9.847616733      9.921212636      6.922018673      0.077166004     -0.588641975      0.695403176       26
Fe     8.541612023      8.500505294      8.632128837      0.354601143      0.211978196     -0.506360248       26
Fe    10.038972881     10.049557680     10.233674377     -0.231760521      1.018970590     -1.700798598       26
124
Lattice="11.3344 0.0 0.0 0.0 11.3344 0.0 0.0 0.0 11.3344" Properties=species:S:1:pos:R:3:force:R:3:Z:I:1 config_type=quadvacancy_124_high config_name=quadvacancy_124_high_0001 ecutwfc=1224.51225528 pbc="T T T" kpoints="3 3 3" timestamp=1474629313.53 degauss=0.136056917253 energy=-429131.880304
Fe     1.231625793      1.452601879      4.165379736      0.672717047     -1.425996526     -0.398132490       26
Fe     0.078766123     -0.063493631      5.728851769     -0.024055241      0.577033445     -0.390021431       26
Fe     1.355078287      1.549413874      7.117777770      1.093914389     -0.458231768     -0.924548628       26
Fe     0.022060301      0.270778782      8.467593665     -0.222822338     -2.122507590      0.192014609       26
Fe     1.497072499      1.428179647      9.918278330     -1.462182231      0.250652987     -0.018247890       26
Fe    -0.048209170      2.683254568      0.024567618      0.502927568      0.477929504     -0.043889759       26
Fe     1.540478502      4.192029302      1.476959674     -1.638925002     -0.725596154      0.511755708       26
Fe     1.290671103      3.887508839      4.028735406      0.472021109      1.890423110      0.117999235       26
Fe     0.044447714      2.781450822      5.492008917     -1.054628191     -0.075135604      1.860103891       26
Fe     1.406749096      4.331123506      6.808729928      0.007371096     -0.448431752      1.867592486       26
Fe    -0.039266102      2.964088391      8.359450137      0.259600425     -0.291028819      1.386694643       26
Fe     1.232522083      4.252027971     10.080351590      0.464820477      0.179441401     -0.869046739       26
Fe    -0.190150269      5.706390161      0.100677241      1.087841701     -1.131401330     -0.599157787       26
Fe     1.439240718      6.745966164      1.602237947     -0.684953184      2.551977456     -1.525725759       26
Fe    -0.048894743      5.611515940      2.855881866     -0.146810245     -0.839912541      0.021798584       26
Fe     1.354359527      7.299298798      4.192491700      0.814850970     -1.476735189      0.532463115       26
Fe     0.072343157      5.798148171      5.570004754     -0.216667631     -0.935149800     -0.189730955       26
Fe     1.340560768      7.082045167      7.197453230      0.290482459     -0.124504897     -1.290855746       26
Fe    -0.322993835      5.712775928      8.595082441      1.682877753     -1.084710612     -0.600412743       26
Fe     1.174641179      7.007211514      9.729533707      1.779720151     -0.208995460      2.423707950       26
Fe     0.092685503      8.477873308      0.046940046     -0.247171199     -0.278831505     -0.319745469       26
Fe     1.234485133     10.303976367      1.364754113     -0.552897214      0.010128089      0.242405659       26
Fe    -0.007842464      8.607524892      2.811843631     -0.418559904     -0.346225775     -1.446685421       26
Fe     1.444991985      9.990351116      4.133166782     -1.330427080      0.713670606      0.720690232       26
Fe    -0.107211954      8.413369317      5.657235328      1.092876692      1.634643858     -0.526773778       26
Fe     1.420496250      9.858859619      7.075713227     -0.308919326      0.124987236      0.403709213       26
Fe    -0.061581416      8.446451541      8.531721286     -0.149837976      1.555710735     -0.048937605       26
Fe     1.513608867     10.081764775     10.034181377     -1.265003304     -0.684476759     -0.425697287       26
Fe     2.886070463      0.165052972      0.080861015      0.419881451     -0.629230438     -0.074548107       26
Fe     4.464846338      1.465721129      1.316014810     -0.388527620     -0.245042068      0.635123406       26
Fe     2.908649914      0.288171260      2.790152955     -0.596200761     -2.027515357     -0.645977061       26
Fe     4.323902213      1.339515260      4.224786455     -0.561465158      1.324316082      0.994678036       26
Fe     2.797963400     -0.159718006      5.563317130      0.378718090      1.345366475      0.662719313       26
Fe     4.151308249      1.337068061      7.032919532      0.171355538      0.309181321      0.583234431       26
Fe     2.677070191      0.022372904      8.485214905      1.727621632     -0.193831351     -0.230762933       26
Fe     4.314674832      1.370202921      9.925226011      0.110902476      0.363513358     -0.030332846       26
Fe     2.708675576      2.757805303     -0.003733959      1.396947689      0.262011349      0.643364049       26
Fe     4.211844916      4.110449947      1.692390144      0.448888637      0.374752935     -1.748775383       26
Fe     2.942239000      2.606006245      2.845612991     -0.465378921      1.344741697     -0.302410578       26
Fe     4.358676514      4.289362759      4.465770828     -1.201143531     -0.266942982     -1.315046227       26
Fe     2.870687200      2.855122835      5.648529387     -0.383536338     -0.517233957     -0.186823295       26
Fe     4.278949755      4.308444528      7.124676872     -0.448363103      0.216610296      0.339122074       26
Fe     2.896488760      2.918912816      8.628472268     -0.373414933      0.027145964     -0.937624744       26
Fe     4.416459569      4.349748272      9.943533606     -0.930079070     -0.873332254      0.106906468       26
Fe     2.834394394      5.539289222      0.183382896      0.283400356      0.621199854     -1.281549896       26
Fe     4.210344888      7.242480471      1.560791674     -0.313489718     -1.009273675     -0.745547143       26
Fe     2.827580459      5.666065857      2.971049707     -0.277733902     -1.359721458      0.180556745       26
Fe     4.091673232      7.089759723      4.090742055      1.463903328      0.938187301      1.689566220       26
Fe     2.863084141      5.763268584      5.828711199     -0.220104939     -0.027121538     -1.731393697       26
Fe     4.297363497      7.241203640      6.976992780      0.306743144     -1.493845623      0.860784756       26
Fe     2.781644119      5.624354347      8.497721928     -0.313085284     -0.403831340      0.017172398       26
Fe     4.075961079      6.929424128      9.890463214      1.050275056      0.920074137      1.051305040       26
Fe     2.693365159      8.468140878      0.008492866      0.583629096      0.097317024      0.171791083       26
Fe     4.350057077     10.039134215      1.469571380     -0.943440322     -0.052318349     -0.762338760       26
Fe     2.518795938      8.733369488      2.695632333      2.342511742     -0.851684337     -0.549006621       26
Fe     4.284531131      9.842894675      4.135719221     -1.133968319      1.017998199      1.138753399       26
Fe     2.867343608      8.521098494      5.692645116     -0.532572901      0.164652158     -0.625039025       26
Fe     4.302926398      9.883679462      7.171666438     -0.532824098      0.272034023     -0.551242709       26
Fe     2.847350237      8.343886147      8.487943560     -0.530957991      1.457582785      0.336798054       26
Fe     4.304776920      9.810550808      9.821549540     -0.864556564      0.637939278      1.127238457       26
Fe     5.950490463     -0.106735217      0.054455660     -2.102000214      0.898664047     -0.705654421       26
Fe     7.141857658      1.410416455      1.373604692      0.027677411     -0.381041853      1.171480457       26
Fe     5.726573158      0.113739015      2.940476183      0.159126343     -0.742292641     -1.422766192       26
Fe     7.128649693      1.271185399      4.423835713      0.276455549      2.040065168     -1.158366031       26
Fe     5.569333645      0.056753007      5.589606511      0.549661995     -1.166530055      1.531318423       26
Fe     7.146393367      1.339362178      7.034289033     -0.348902807      0.273359941      0.001289665       26
Fe     5.670019511     -0.031549744      8.569247875     -0.063705508      0.308043351     -0.793826289       26
Fe     7.142068602      1.440813740      9.678350991      0.295227430     -0.128610178      1.104934394       26
Fe     5.778756724      2.796140012     -0.015956376     -0.715482206      0.283790392     -0.032192782       26
Fe     7.060203552      4.211764895      1.579125666      0.550210154     -0.042797811     -0.863177939       26
Fe     5.765352685      2.847289246      2.957294835      0.015270296     -0.864773308      0.076240407       26
Fe     7.237457756      4.276250831      4.188369141     -0.800058900     -0.660042023      1.484673727       26
Fe     5.591070508      2.893134548      5.820421196      1.210162189     -1.073647155     -1.611199511       26
Fe     7.045100929      4.328188327      7.019775685      0.683161897     -1.215232661     -0.384235163       26
Fe     5.725378886      2.813464824      8.290702569     -0.329505377      0.136796056      2.075810701       26
Fe     7.059026168      4.291639874     10.083818455     -0.231708842     -0.482845453     -1.148391694       26
Fe     5.613128542      5.641352989      0.226141047     -0.528735273      0.311909261     -0.665203770       26
Fe     7.038958205      7.006971814      1.512602622     -1.064149243      1.543638635      0.290055656       26
Fe     5.612816857      5.524570121      2.918121686      0.341761311      1.758971349      0.196269271       26
Fe     7.205246310      7.081984540      4.233006434     -1.445679606      1.183576983      0.426216392       26
Fe     5.736514435      5.692628307      5.688922332     -0.621553638      0.570778208     -0.751233137       26
Fe     7.151966582      6.953511564      6.947073001     -0.240104779      2.197278097      1.297706965       26
Fe     5.726214718      5.805596130      8.474871143     -0.877975666     -1.287935487      0.062624873       26
Fe     6.972103426      7.097440071      9.941440607      0.472479793     -0.751598491      0.271665584       26
Fe     5.576048778      8.502477423      0.018876026      0.017154400     -0.275251759      0.199582137       26
Fe     7.115174700      9.865879421      1.532923308      0.125520226      0.744759871     -0.744800752       26
Fe     5.637330184      8.664797592      2.867920030      0.670507956     -2.045076248     -0.351966791       26
Fe     7.013625583      9.941418267      4.259837123      1.391683098      0.100133668      0.131566432       26
Fe     5.791128754      8.602951337      5.679822713     -0.982578168     -0.943055685     -0.303658849       26
Fe     7.006331953     10.050008733      7.126082440      0.252738665     -1.488291526     -0.790729138       26
Fe     5.720216055      8.377233017      8.585504635     -0.338872934      1.026866191     -1.071839926       26
Fe     7.139140666      9.899098995      9.937469181     -0.335502989      0.066958981     -0.802358495       26
Fe     8.558737644      0.054144848     -0.106127138     -0.584881223     -0.278157105      0.776467743       26
Fe    10.508850056      1.010216212      1.605070131     -0.743594133     -0.025834444     -0.063086643       26
Fe     8.468512488      0.041623226      2.854836018      0.137465057     -0.174144157     -1.123462535       26
Fe    10.044615519      1.230680447      4.161896630      0.030991563      1.370524462     -0.071028781       26
Fe     8.628908076     -0.023824591      5.635874835     -0.721185941     -0.193303760     -0.029681843       26
Fe     9.877176146      1.434469570      7.093249902      1.170409335     -0.166084006     -0.667957678       26
Fe     8.605007408     -0.245632259      8.305438955     -0.264234582      2.343176886      1.906940391       26
Fe     9.830642699      1.414257207      9.940073622      0.837154261      0.515616219     -0.514154547       26
Fe     8.394542516      2.740902913      0.087003988      1.427555128      0.589015042     -0.635243991       26
Fe     9.953248218      4.097702691      1.435486277      0.060322193      0.576741367      0.332035857       26
Fe     8.638361895      2.787934076      2.772389230     -0.509567699     -0.875037152      0.747245356       26
Fe     9.786802679      4.120090364      4.437283095      1.613684740      1.076047022     -2.387590379       26
Fe     8.626674814      2.755680364      5.688309674     -1.419077944      0.092296431     -0.115697584       26
Fe    10.112106068      4.358039476      6.965021194     -1.794919742     -0.369032231     -0.064851962       26
Fe     8.567668596      2.901311966      8.313720514     -0.713131446     -0.024300267      1.081456366       26
Fe     9.736912050      4.230168867     10.041019840      0.501779570     -0.150405933     -0.209017314       26
Fe     8.304303623      5.792862997      0.118290582      1.171434434     -1.513159493     -0.559596995       26
Fe     9.874344461      7.050129152      1.344288459     -0.094610167      0.935552435      1.004052278       26
Fe     8.402037094      5.832494780      2.888282881      1.727506189     -2.043655971     -0.906965625       26
Fe    10.042848781      7.055977283      4.035859677     -1.478765075      0.976260196      1.614041095       26
Fe     8.554744592      5.771739903      5.628847462      0.490555420     -0.565210998      0.037906802       26
Fe     9.959316577      7.151585610      7.058744395     -1.377707867     -0.664723231      0.153463746       26
Fe     8.302816561      5.459064690      8.475456395      1.655681138      2.073143181      0.498531753       26
Fe     9.823072725      7.058482582      9.969401937     -0.974749673      0.756820916     -0.053561477       26
Fe     8.220078898      8.466595138     -0.025114027      2.070222665      0.050429617      0.311044085       26
Fe     9.844720420      9.831389885      1.088511572      0.365636575      0.438250440      1.631466489       26
Fe     8.561168239      8.570388603      2.783791818     -0.148477349     -0.315008212      0.416516134       26
Fe    10.009340520     10.109575754      4.000605001      0.267253057     -0.985063653      0.853954106       26
Fe     8.497329339      8.665247160      5.734889740      0.042973160     -1.077602283     -1.167453595       26
Fe     9.964040448      9.919000694      6.948598770      0.716412688     -0.284832974      1.152499031       26
Fe     8.464022910      8.497064873      8.475714978      0.179330329     -0.426480959     -0.012872999       26
Fe    10.032535032     10.041531622      9.933227361      0.174156755     -0.610829567     -0.139253002       26
124
Lattice="11.3344 0.0 0.0 0.0 11.3344 0.0 0.0 0.0 11.3344" Properties=species:S:1:pos:R:3:force:R:3:Z:I:1 config_type=quadvacancy_124_high config_name=quadvacancy_124_high_0002 ecutwfc=1224.51225528 pbc="T T T" kpoints="3 3 3" timestamp=1474629313.53 degauss=0.136056917253 energy=-429131.298797
Fe     1.460634727      1.287048765      4.122617947     -1.027828040      0.554267355      0.262372332       26
Fe     0.073039508      0.133399869      5.780818678     -0.882391792     -0.830750672     -0.323483339       26
Fe     1.512412771      1.199851174      7.236755080     -0.748364043      2.938767011      0.097329366       26
Fe     0.093146292     -0.033406206      8.641949119     -0.632505509     -1.105788001     -0.224942470       26
Fe     1.343176702      1.307684853     10.118077495      0.847017527      0.053283541     -0.040928876       26
Fe     0.041390611      2.865870601     -0.042848418     -0.727275856     -0.126627600      0.388924341       26
Fe     1.054164826      4.121637838      1.573376700      0.448207294      0.909651656     -0.158355013       26
Fe     1.434506928      4.317971930      4.375752763     -1.472798316     -0.951786637     -1.945656576       26
Fe     0.099203271      2.824311289      5.736878383     -0.669849239     -0.421238994      0.508716407       26