53
Lattice="8.5008 0.0 0.0 0.0 8.5008 0.0 0.0 0.0 8.5008" Properties=species:S:1:pos:R:3:force:R:3:Z:I:1 config_type=monovacancy_53_high config_name=bcc_monovacancy_53_0000 ecutwfc=1224.51225528 pbc="T T T" kpoints="4 4 4" degauss=0.136056917253 energy=-183423.142819
Fe      1.41622052       1.45525420       1.45427580      -0.37764311      -1.16939658      -0.82218633       26 
Fe      0.06080491      -0.08430259       2.84576401      -0.32467582       0.30745560       0.13012636       26 
Fe      1.39751522       1.39136451       4.26946792       0.06020521      -0.29394676      -0.21795627       26 
Fe      0.02162378       0.00892024       5.59335239      -0.25744456      -0.59338078       0.81330317       26 
Fe      1.32689406       1.38403541       7.11273268       0.64543841      -0.54410070       0.77393598       26 
Fe     -0.01667786       2.77412824      -0.01882002       0.05650385       1.01551091      -0.01699551       26 
Fe      1.44100073       4.21390115       1.34881568      -0.43115677       0.37012752       0.39966075       26 
Fe      0.02066198       2.83567171       2.83410641      -0.12312113      -0.06344377      -0.11937760       26 
Fe      1.56146612       4.34963902       4.13967496      -1.69726282      -1.15585509       1.06614236       26 
Fe      0.01787854       2.72933760       5.69771315      -0.42600633       1.08760799      -0.53251685       26 
Fe      1.38652911       4.11431458       7.05742979       0.08996341       1.33840830       0.07191221       26 
Fe      0.03538507       5.61023455      -0.02355633      -0.35297646      -0.19430880      -0.53850521       26 
Fe      1.29387293       6.99151647       1.36837805       0.87537011       0.96033581       0.28448819       26 
Fe     -0.05245576       5.61095108       2.90394955       0.13994334       0.44509086      -0.78118880       26 
Fe      1.47173434       7.01332223       4.25726058      -0.61293042       0.60851403       0.16522320       26 
Fe     -0.09836020       5.63429455       5.76508361       1.37338867      -0.14501304      -0.99639399       26 
Fe      1.43203963       7.22936059       7.17622389      -0.48673450      -0.68243762       0.12474092       26 
Fe      2.95424090       0.04642223       0.16302904      -0.52481305       0.16084153      -0.97059040       26 
Fe      4.29823999       1.50119527       1.52976934       0.32552428      -1.22644627      -1.09574142       26 
Fe      2.90958921       0.06409732       2.93555636      -1.01578474      -1.34161832      -0.99939910       26 
Fe      4.14670372       1.40162465       4.21505771       1.58170870       0.51089696       0.82785278       26 
Fe      2.88491846      -0.02293061       5.79104056      -0.84724687       0.56081158      -0.74098395       26 
Fe      4.25641197       1.51201884       6.96570877      -0.01016203      -0.19752140       1.22384046       26 
Fe      2.91601688       2.91102691       0.01563461      -1.17754646      -1.37763330      -0.06890685       26 
Fe      4.23666829       4.27891622       1.46546021       0.50556706       0.16816531      -0.45141757       26 
Fe      2.75526392       2.71639180       2.74628910       0.61943993       1.39943317       0.88067224       26 
Fe      4.14820619       4.12616606       4.14850537       0.88424813       0.56790809       0.54946839       26 
Fe      2.70089357       2.76253228       5.62925559       1.21516633       0.74098729       0.15105282       26 
Fe      4.11255027       4.32224675       7.23120182       1.48178021      -0.38529163      -2.01467501       26 
Fe      2.87011659       5.67345152      -0.00321850      -0.77148109       0.65527057       0.17341808       26 
Fe      4.22537291       7.05601669       1.47147063       0.71843178       0.91324194      -0.31059183       26 
Fe      2.84122764       5.65765825       2.76506116      -0.19184852       0.39580436       0.31394069       26 
Fe      4.17601913       7.07800040       4.36935109       0.79185862       0.45105531      -1.27960511       26 
Fe      2.85681107       5.72409237       5.64634209      -0.61482506      -1.02426192       0.83962458       26 
Fe      4.29741837       7.12826959       7.06639500      -0.52996940      -0.42824294       0.76803375       26 
Fe      5.69585717      -0.01189121      -0.04022850      -0.76167259       0.63302410       0.31207587       26 
Fe      7.19308946       1.35929459       1.30402347      -0.28961677      -0.27360188       0.65813581       26 
Fe      5.80046494       0.01670248       2.97351595      -1.00166501      -0.19126616      -1.25014618       26 
Fe      7.15208918       1.36500179       4.27202697      -0.41702496       0.56120959      -0.31064634       26 
Fe      5.64813215       0.02735185       5.73028751       0.26967401       0.29034671      -0.77414064       26 
Fe      7.02484154       1.50236679       7.16791972       0.39367857      -0.97421771      -0.61434966       26 
Fe      5.56730494       2.86587076       0.02541424       0.87406270       0.08699456      -0.43119199       26 
Fe      7.10064074       4.25337112       1.36200727      -0.06788664       0.24896660       0.21757832       26 
Fe      5.75381151       2.84053045       2.69629915      -0.21248265      -0.02700404       1.56128206       26 
Fe      7.08369196       4.19080522       4.25233730       0.31234352       0.56708328      -0.68888594       26 
Fe      5.76539387       2.92535803       5.56976790      -1.89731778      -1.24266916       0.25340510       26 
Fe      6.92142977       4.28887936       6.97326215       1.29349704      -0.65749355       1.28446090       26 
Fe      5.78581773       5.74461831      -0.05388150      -1.52395787      -0.63263149       0.64012806       26 
Fe      7.13726353       7.16858251       1.24700682       0.42803442      -0.26447112       1.01768118       26 
Fe      5.57708695       5.79013263       2.85120954       0.94037942      -1.21179330      -0.02606533       26 
Fe      7.04277635       7.03472067       4.33829250       0.49529371       0.24159448      -0.80895826       26 
Fe      5.58051600       5.62193154       5.57463233      -0.35771166      -0.16028283       0.40661122       26 
Fe      7.02422925       7.02272496       6.97651989       0.93146387       1.17164398       0.95262096       26 
53
Lattice="8.5008 0.0 0.0 0.0 8.5008 0.0 0.0 0.0 8.5008" Properties=species:S:1:pos:R:3:force:R:3:Z:I:1 config_type=monovacancy_53_high config_name=bcc_monovacancy_53_0001 ecutwfc=1224.51225528 pbc="T T T" kpoints="4 4 4" degauss=0.136056917253 energy=-183423.727829
Fe      1.39223862       1.39895060       1.39720761      -0.01731124      -0.14242523       0.29045469       26 
Fe     -0.10683783       0.03165425       3.00023359       1.16308298      -0.22067058      -2.07682372       26 
Fe      1.34939402       1.38840396       4.25212534       0.89591914       0.77682898       0.36814186       26 
Fe      0.01155476       0.03098742       5.52349173      -0.84523267      -0.93203748       0.73701262       26 
Fe      1.24646882       1.32725905       7.05123954       1.21033368       0.34855185       0.64335274       26 
Fe      0.09764452       2.90962310       0.08028350      -0.49397936      -0.67937672      -0.88627082       26 
Fe      1.41172174       4.22294439       1.51859033       1.06449094       0.06216902      -0.52076768       26 
Fe      0.04846938       2.90697833       2.96469014      -0.25777263      -1.15655777      -0.73932045       26 
Fe      1.45469190       4.36144096       4.38384975      -0.29427638      -1.05901552      -0.95508228       26 
Fe      0.03453092       2.92556080       5.70812863      -0.64941463      -0.90656119      -0.05372860       26 
Fe      1.53393978       4.16820520       7.06560002      -1.50068476       0.84859618       0.51914223       26 
Fe     -0.03777663       5.62809209       0.01827266       0.79207922       0.30580006       0.07596890       26 
Fe      1.46038075       7.13675929       1.40892376      -0.88969912      -0.35824414      -0.12183892       26 
Fe      0.09974534       5.63422253       2.79490436      -1.19739255       0.33810880      -0.20759472       26 
Fe      1.36069457       6.98543915       4.14248278       0.46402601       1.10344341       1.05245021       26 
Fe     -0.12848071       5.68580067       5.65095999       1.09247946       0.43348156       0.48021316       26 
Fe      1.27085841       7.22461584       7.11846379       0.18639341      -0.97609076      -0.12485508       26 
Fe      2.76325405      -0.08472786       0.00681822       0.65961728       1.08277200      -0.36825576       26 
Fe      4.25109106       1.40427184       1.40419995      -0.18647594       0.49879786       0.50714058       26 
Fe      2.83640795       0.04447478       2.85021377      -0.56982021       0.08694417      -0.56131398       26 
Fe      4.20733540       1.49207651       4.30043527       0.66231642      -0.52450632      -0.40770985       26 
Fe      2.88615112      -0.02668577       5.57694346      -1.19443501       0.18513948       0.60574907       26 
Fe      4.25793163       1.37194971       7.08292059       0.06723075       0.15742504      -0.32145217       26 
Fe      2.91819664       2.79050235      -0.04452582      -0.99538406      -0.43234873       0.74316064       26 
Fe      4.27611260       4.19196221       1.36775621      -0.28823943       0.28431850       0.68743790       26 
Fe      2.82519978       2.86268342       3.02098184       0.21703813       0.07079352      -1.27072632       26 
Fe      4.28004035       4.36241221       4.28714178       0.17027259      -0.70237806       0.12169905       26 
Fe      2.88571178       2.86029123       5.75917318      -0.21596212      -0.73499791      -0.93838245       26 
Fe      4.30146025       4.17990315       7.09995619       0.08435121       1.21189100      -0.53135831       26 
Fe      2.78190719       5.52627824      -0.06596844       0.36845168       1.36077150       0.55358036       26 
Fe      4.21201239       7.04848598       1.35994824      -0.34054569       0.25351540       0.06009414       26 
Fe      2.93152636       5.70785328       2.83508880      -1.09909182      -1.01806248      -0.59658283       26 
Fe      4.14376723       7.11220420       4.09841468       1.14413163      -0.47426388       1.70522090       26 
Fe      2.74843926       5.66403396       5.68015199       1.11621537       0.87780289       0.39807515       26 
Fe      4.23948467       7.17124272       7.02113165      -0.32537464      -1.23664635       0.46555787       26 
Fe      5.59310279       0.05893824       0.04835854      -0.02677058      -0.72593245      -0.79253174       26 
Fe      7.19791384       1.26010908       1.27668496      -0.20358689       1.22778222       0.86875775       26 
Fe      5.55698240      -0.11759105       2.78759753       0.72678452       1.37171900      -0.16351984       26 
Fe      6.95093695       1.33699066       4.22076564       0.65334790       0.94716919       0.13530070       26 
Fe      5.65709295      -0.08579137       5.61886677       0.03053828       0.65835641      -0.07838291       26 
Fe      7.18479000       1.28410217       7.15416664      -0.34078892       0.71222950      -0.29000115       26 
Fe      5.66723236       2.88439898      -0.07876932       0.69555359      -1.09632506       0.88631298       26 
Fe      7.15858002       4.12089395       1.42879597      -0.61167109       1.15132044       0.14358120       26 
Fe      5.69762756       2.90178606       2.85407366      -0.33024354      -0.93160553      -0.25106899       26 
Fe      7.14067904       4.24661491       4.23743822      -0.63284567       0.35588901       0.23861277       26 
Fe      5.75347311       2.81318796       5.64236071      -0.37859056       0.23312218       0.48548598       26 
Fe      7.07535286       4.35529228       7.18101650       0.09027143      -0.92564469      -0.71086116       26 
Fe      5.60030740       5.74511817       0.09120867       0.70670600      -0.58276238      -1.03115788       26 
Fe      7.17356267       7.22616203       1.31487999       0.01384308      -0.84643517       0.31206096       26 
Fe      5.66854282       5.64722919       2.75713088       0.24681176      -0.18692048       0.00399678       26 
Fe      7.04273349       7.02581489       4.07026528      -0.10293694      -0.01625323       1.30704573       26 
Fe      5.73342120       5.71210575       5.69144996      -0.92777022      -0.16925340      -0.38117941       26 
Fe      7.05963972       7.14398024       7.13765508       0.39400947       0.09057636      -0.01483964       26 
53
Lattice="8.5008 0.0 0.0 0.0 8.5008 0.0 0.0 0.0 8.5008" Properties=species:S:1:pos:R:3:force:R:3:Z:I:1 config_type=monovacancy_53_high config_name=bcc_monovacancy_53_0002 ecutwfc=1224.51225528 pbc="T T T" kpoints="4 4 4" degauss=0.136056917253 energy=-183424.02082
Fe      1.35450005       1.39766777       1.38666572       0.36520103      -0.07946071      -0.33967615       26 
Fe      0.17614821       0.11103011       2.82821553      -2.05600112      -1.17119429       0.60337260       26 
Fe      1.40790126       1.49147508       4.20015551       0.10878826      -0.31869954       0.52158144       26 
Fe      0.03197515       0.00498746       5.71315279       0.34487723      -0.44926119      -0.37537668       26 
Fe      1.51531165       1.36134382       7.15744522      -0.50095013       0.13826338      -0.56865268       26 
Fe      0.02904536       2.91558651       0.01710455      -0.20753842       0.00940150       0.09773406       26 
Fe      1.31692700       4.39922823       1.53780890       0.62024855      -1.03016414      -1.28703097       26 
Fe     -0.15016793       2.85858117       2.77716954       0.72801248      -0.46423144       0.70399015       26 
Fe      1.33512825       4.16713534       4.17360116       0.22732408       1.01468533       0.46436899       26 
Fe      0.01399539       2.84436139       5.73134930      -0.24776281      -0.71350143      -0.78151405       26 
Fe      1.35063229       4.22266976       7.01838611       0.94775078       0.39753497       0.32528363       26 
Fe      0.02669747       5.73663749      -0.07614308      -0.68065661      -1.27004010       0.98617128       26 
Fe      1.34835867       7.09569644       1.35315170       0.46356424       0.71034591       0.23720380       26 
Fe     -0.02817619       5.74538025       2.89302617      -0.24661533      -0.23661065      -0.39438819       26 
Fe      1.41981620       7.12217645       4.25443682       0.00282230      -0.27263798      -0.22729863       26 
Fe      0.01169554       5.68489197       5.61483932      -0.03182974      -0.40281113       0.36279936       26 
Fe      1.38807430       7.03523628       7.17678731       0.18529632       1.05892425      -1.14800166       26 
Fe      2.92198985      -0.08986681      -0.07166616      -0.25505369       0.97111568       0.87506903       26 
Fe      4.23236750       1.38159225       1.42433215       0.29164151      -0.00394279      -0.42799945       26 
Fe      2.86881834       0.01523578       2.85718035      -0.51742653      -0.29312864      -0.56745043       26 
Fe      4.19269783       1.43743763       4.11854007       0.33175921      -0.63844990       1.60947019       26 
Fe      2.83768180      -0.03380280       5.60395346       0.09759599       0.58566798       0.86933573       26 
Fe      4.40954349       1.42651503       7.08087438      -1.58775568      -0.09505805      -0.04383448       26 
Fe      2.68679693       2.81515124       0.11289892       1.32208462       0.54458998      -0.93500556       26 
Fe      4.26693354       4.21897803       1.44847740      -0.50784017       0.40779084      -0.87318519       26 
Fe      2.87073888       2.88210972       2.82018696      -1.02798822      -0.19339221      -0.36529590       26 
Fe      4.21042562       4.30773694       4.22868296       0.06852890       0.12485457      -0.12335999       26 
Fe      2.84968862       2.85411386       5.56169393      -0.47803955      -0.44422671       0.81094109       26 
Fe      4.17851469       4.22068053       6.95446004       0.05289402      -0.22090712       1.15304873       26 
Fe      2.81048823       5.69170882      -0.06055429       0.09440371      -0.85605341       0.68186555       26 
Fe      4.24905516       7.14310376       1.49756195       0.59178721      -0.41190460      -0.69811440       26 
Fe      2.85087691       5.67196582       2.75673747      -0.19320734       0.42312027       0.88038273       26 
Fe      4.24406424       7.08123060       4.33041628       0.52558799       0.06606115      -0.88636415       26 
Fe      2.80926127       5.68131074       5.58697665      -0.31223065      -0.30795233       0.43485016       26 
Fe      4.23468883       7.04132651       7.12131276       0.29356753       0.32446267      -0.79809869       26 
Fe      5.77509939      -0.03172662      -0.07048857      -0.98510659       0.05089370       0.88945718       26 
Fe      7.07169763       1.39631536       1.37992516       0.42316321      -0.11109814       0.22591203       26 
Fe      5.78963720       0.04444884       2.95049281      -0.86076470      -0.80265983      -1.00948990       26 
Fe      7.05208888       1.31557675       4.36361906       0.76635277       1.21056071      -0.53341622       26 
Fe      5.68463083       0.02312488       5.71298501       0.12992247      -0.60808723       0.16902663       26 
Fe      7.34379688       1.34792722       7.21554122      -1.14321632       0.05158430      -0.21194092       26 
Fe      5.67520663       2.78004808       0.03018583       0.07461110       0.59398061      -0.39846596       26 
Fe      7.12282417       4.28301043       1.40242449      -0.86316534       0.16101996      -0.28919434       26 
Fe      5.53722867       2.83403061       2.89225037       1.41654284      -0.07949465      -0.89586129       26 
Fe      6.98109143       4.15812078       4.27082395       0.71888198       0.84403068      -0.24980607       26 
Fe      5.54086616       2.80194857       5.54594939       1.07471571      -0.08236812       1.17411789       26 
Fe      7.07423010       4.24910536       6.97875658      -0.16115829      -0.45100568       1.03281444       26 
Fe      5.52656106       5.57150098      -0.07655051       1.21319686       0.48844480       0.86209473       26 
Fe      7.10604058       7.15882329       1.39111344       0.35073215      -0.12337104       0.02573134       26 
Fe      5.69752062       5.63983305       2.78729692      -0.27961646       0.42038230       0.54949924       26 
Fe      7.07851037       6.99345662       4.32795959       0.03622453       1.04955772      -0.41084608       26 
Fe      5.69469304       5.67505055       5.74515025      -0.62206683      -0.18887863      -1.00537948       26 
Fe      7.13302118       7.02428404       7.17752190      -0.10208976       0.67331894      -0.70107529       26 
53
Lattice="8.5008 0.0 0.0 0.0 8.5008 0.0 0.0 0.0 8.5008" Properties=species:S:1:pos:R:3:force:R:3:Z:I:1 config_type=monovacancy_53_high config_name=bcc_monovacancy_53_0003 ecutwfc=1224.51225528 pbc="T T T" kpoints="4 4 4" degauss=0.136056917253 energy=-183424.088609
Fe      1.29637115       1.28650578       1.15915014       0.01064437       0.16000180       1.82301341       26 
Fe     -0.07298083      -0.01813118       2.87052040       1.02566060       0.18365364      -0.20385865       26 
Fe      1.33881173       1.49387257       4.16576724       0.79248623      -0.91861992       0.18003944       26 
Fe      0.02865383      -0.11177620       5.59814115       0.54470594       1.26405714      -0.41154696       26 
Fe      1.33903623       1.47164302       7.01626780       0.54972344      -0.86129898       0.72036165       26 
Fe      0.06405946       2.87577522       0.16824004      -1.01148508       0.20196761      -2.28208568       26 
Fe      1.38410533       4.31687588       1.42208370       0.34602831      -0.31688512       0.58365095       26 
Fe     -0.01454866       2.80167870       2.73173091       0.17951236       0.18691123       1.01643600       26 
Fe      1.38882858       4.15404123       4.26108193      -0.31959377       0.99001611      -0.30714809       26 
Fe      0.00663084       2.71488899       5.70243203      -0.47849412       1.13070765      -0.36718644       26 
Fe      1.44585636       4.33124737       7.08599987      -0.11734206      -1.09413602      -0.43424415       26 
Fe      0.03453741       5.51380163       0.00733427      -0.51178065       1.43141821      -0.04365836       26 
Fe      1.39500537       7.11795188       1.31403594      -0.43342139      -0.05235640       0.27848261       26 
Fe      0.00604177       5.78688703       2.88968395      -0.03950191      -0.98107459      -0.16482134       26 
Fe      1.52833758       7.11422086       4.19709330      -1.14545344      -0.16689647       0.35298700       26 
Fe     -0.08454555       5.55441316       5.67410869       0.97728581       0.81885803      -0.63214478       26 
Fe      1.45878824       7.22168027       7.01903586      -0.49215362      -0.98474381       0.83245223       26 
Fe      2.82555045       0.04740763       0.03967898       0.48345995      -0.74014937      -1.01580530       26 
Fe      4.20837986       1.47530855       1.39232841       0.19083370      -0.16904952       0.45626230       26 
Fe      2.73256520       0.03815643       2.73165550       0.75305708       0.23220198       0.57605643       26 
Fe      4.23133702       1.37158183       4.31137598       0.10250860       0.30907051      -0.76375004       26 
Fe      2.85306787       0.02475666       5.67562283      -0.15083196       0.23508496      -0.43237676       26 
Fe      4.17760480       1.43198163       7.17402199       0.75196693       0.10229211      -0.54752772       26 
Fe      2.75196356       2.79670634       0.02204687       0.64101637       0.98618054      -0.35512539       26 
Fe      4.20853168       4.34884148       1.49500049       0.33120590      -0.56214059      -1.01156761       26 
Fe      2.82426358       2.94658321       2.77931953      -0.42542012      -1.43258986       0.04549027       26 
Fe      4.20878167       4.10619954       4.21287359       0.69414231       1.38387594       0.63311229       26 
Fe      2.84971926       2.86161057       5.63341998      -0.15155753      -0.37851369       0.59243924       26 
Fe      4.33235579       4.34002874       7.07369688      -1.01060114      -1.18022144       0.26100142       26 
Fe      2.75851814       5.66495452      -0.01102988       0.93592679       0.53463750      -0.11153651       26 
Fe      4.27840628       7.09728566       1.44160195      -0.54786119      -0.29428589       0.13246683       26 
Fe      2.81664604       5.67645570       2.84155293       0.00073534       0.18648288      -0.07360760       26 
Fe      4.24578987       7.07488769       4.20814379       0.05242762       0.61663255       0.48609918       26 
Fe      2.82262840       5.64903225       5.57783643       0.27981675       0.06097885       0.55965690       26 
Fe      4.22005952       7.10640762       7.06731048       0.29438359      -0.28301443       0.21632850       26 
Fe      5.58216686      -0.07929430       0.10624681       0.74879599       0.67875785      -0.93242469       26 
Fe      7.18414407       1.39362252       1.40714368      -1.06609788      -0.36257928      -0.38145477       26 
Fe      5.70207250       0.07099857       2.81861039      -0.59955528      -0.31994550       0.03538532       26 
Fe      7.09471828       1.36397391       4.27542809      -0.24611242       0.63510412      -0.26017404       26 
Fe      5.74532567       0.05632185       5.77876137      -1.20246971      -0.91396160      -0.63745925       26 
Fe      7.15152240       1.23379221       7.12974850       0.42692499       1.01924775       1.10498067       26 
Fe      5.72792019       2.83677718       0.00557689      -0.43160028      -0.18597406       0.06902435       26 
Fe      6.98611412       4.22133252       1.52248714       0.88270650       0.87277792      -0.93693055       26 
Fe      5.63270371       2.86590982       2.78241993      -0.05170463      -0.97549966       0.66077402       26 
Fe      7.07600352       4.15545172       4.16997561       0.10250860       0.29870948       1.06886927       26 
Fe      5.71632212       2.74324039       5.73330855      -0.31781174       0.57822618      -0.26289812       26 
Fe      7.14372714       4.23818971       7.10762092      -0.58064250      -0.55148722       0.08741082       26 
Fe      5.64621264       5.62852299       0.00531955       0.72046140       0.84192443       0.12999883       26 
Fe      7.21749348       7.11685541       1.38653852      -0.80065231      -0.17597632      -0.36922275       26 
Fe      5.69779324       5.72710633       2.95221095      -0.36707614      -0.38990393      -0.98519015       26 
Fe      6.99441398       7.16044212       4.30267304       0.70707238      -0.91111924      -0.20969737       26 
Fe      5.65442852       5.63107833       5.65750761       0.28425550       0.21686766      -0.01868266       26 
Fe      7.31499893       7.15740838       7.06343320      -1.31103299      -0.95422121       1.24934503       26 
53
Lattice="8.5008 0.0 0.0 0.0 8.5008 0.0 0.0 0.0 8.5008" Properties=species:S:1:pos:R:3:force:R:3:Z:I:1 config_type=monovacancy_53_high config_name=bcc_monovacancy_53_0004 ecutwfc=1224.51225528 pbc="T T T" kpoints="4 4 4" degauss=0.136056917253 energy=-183423.490462
Fe      1.29174007       1.30464957       1.28614304       0.39259793       0.28789593      -0.08578588       26 
Fe      0.09124941      -0.03478032       2.83325377      -1.64099011       0.38732614       0.28089122       26 
Fe      1.40410552       1.31511461       4.35908635       0.53275082       0.88116512      -1.29373847       26 
Fe      0.02603599      -0.03032995       5.63185257      -0.13343460       0.07437764       0.48093204       26 
Fe      1.51615026       1.43439924       7.08134249      -1.35686368      -1.00439269      -0.52580344       26 
Fe     -0.01093156       2.86785509      -0.13317206       0.12640109      -0.53663344       1.07953832       26 
Fe      1.32581137       4.19739142       1.36063264       0.50620444      -0.27372015       0.21401117       26 
Fe      0.05799678       2.82696939       2.98252584      -0.14101909       0.09894993      -0.97828751       26 
Fe      1.33663418       4.32436296       4.35690568       0.87451033      -0.38185278      -1.09384240       26 
Fe      0.13796581       2.83126769       5.62334094      -1.19026802       0.02808519       1.36887510       26 
Fe      1.42193675       4.31574891       7.06397837       0.50371175      -0.35212774      -0.28431850       26 
Fe     -0.06618264       5.59233243      -0.09916919       0.64994093       0.40043106       1.49827023       26 
Fe      1.35754978       7.02350285       1.48483485      -0.26817325       0.05992084      -1.89605717       26 
Fe     -0.12150842       5.65135659       2.80382202       0.50936921       0.01005687       0.30283867       26 
Fe      1.33620410       7.06724840       4.15113488       0.75110921      -0.25320866       0.96294008       26 
Fe      0.04165306       5.79462410       5.74274499      -0.65941056      -0.60250819      -0.59238936       26 
Fe      1.40945990       7.08648706       7.23992548       0.26097288       0.58371137      -0.60050710       26 
Fe      2.95591878       0.06352225      -0.10530312      -0.83953356      -0.88660069       0.46051696       26 
Fe      4.18442578       1.37614822       1.39215324       0.20468732       0.82215033       0.27136656       26 
Fe      2.73815160      -0.03257656       2.72047750       0.45062387       0.49738067       0.52859206       26 
Fe      4.27946838       1.44209411       4.26062157      -0.45492636       0.08418152      -0.37667561       26 
Fe      2.78608641      -0.00038870       5.62852781       0.60707216      -0.22687234       0.79287961       26 
Fe      4.32186036       1.62336486       7.07665654      -0.24852334      -2.34172524       0.05608810       26 
Fe      2.72311690       2.73545559      -0.14641899       1.08126482       1.54617477       1.98410614       26 
Fe      4.36725531       4.18250460       1.40791789      -1.55334301       0.17686901      -0.29519015       26 
Fe      2.76749478       2.74318664       2.86249825      -0.16077751       0.34975693      -0.51571572       26 
Fe      4.17514666       4.11365397       4.16627954       0.52982131       1.40729715       0.58175090       26 
Fe      2.90569634       2.84526918       5.70787496      -0.49507131       0.49083618      -0.57752144       26 
Fe      4.36817957       4.31686592       7.16467017      -0.62314926      -0.17371504      -0.89431683       26 
Fe      2.87647072       5.54603026       0.00412557      -0.38840086       0.76134683      -0.08422908       26 
Fe      4.13707160       7.03045758       1.36123602       0.53408060       0.07937638       0.37469534       26 
Fe      2.70316426       5.58906416       2.74522693       0.88099311      -0.11189261       0.67214755       26 
Fe      4.13857183       7.23228874       4.20284858       0.60941829      -1.18528754      -0.32534662       26 
Fe      2.89719483       5.69389130       5.55170258      -0.19763864      -0.04485495       0.91380604       26 
Fe      4.33611993       7.08343290       7.08233196      -0.68718953      -0.04235507      -0.59511036       26 
Fe      5.58307028      -0.04357447       0.07273427       0.59993837       0.67709769      -0.35648525       26 
Fe      7.23212849       1.46082708       1.56667201      -0.80094773      -0.51736457      -1.14013331       26 
Fe      5.58858600       0.06447070       2.77646909       0.59056722      -0.12190011       0.50967080       26 
Fe      7.11978077       1.50525458       4.35260917      -0.40197063      -0.73181591      -0.55304094       26 