126
Lattice="11.3344 0.0 0.0 0.0 11.3344 0.0 0.0 0.0 11.3344" Properties=species:S:1:pos:R:3:force:R:3:Z:I:1 config_type=doublevacancy_126_2NN_high config_name=doublevacancy_126_2NN_high_0000 ecutwfc=1224.51225528 pbc="T T T" kpoints="3 3 3" timestamp=1470309147.35 degauss=0.136056917253 energy=-436061.780668
Fe     1.252383398      1.378088366      1.301203141      0.226259903     -0.083701234      0.840925041       26
Fe     1.452219082      1.419032707      4.271376959     -0.243169277     -0.460198148      0.264087772       26
Fe    -0.037920108      0.077779815      5.758524570      1.239515702     -1.418870456     -0.276253203       26
Fe     1.469297234      1.543180748      7.148282687     -0.687189273      0.451332727     -0.626860652       26
Fe     0.068231909      0.116476545      8.541346334      0.247029017     -0.956728811      0.313455780       26
Fe     1.473718353      1.479804099     10.069732096     -0.747836710     -0.953534730     -1.669971586       26
Fe    -0.078336946      2.740472557     -0.139073598      0.276203324      0.514582121      1.042613426       26
Fe     1.290698702      4.184620651      1.381506617      0.915310140      0.264911039      0.449458393       26
Fe     0.082475963      2.756438771      2.951551003     -0.643454809     -0.533967467     -1.221242358       26
Fe     1.293681134      4.252680515      4.262681468      1.854019632      0.029080462      0.398925161       26
Fe    -0.076843548      2.735521567      5.706604914      0.951307126      0.504393868      0.193976104       26
Fe     1.300699984      4.427935082      7.218032488      1.541225911     -1.515853752     -1.003173732       26
Fe     0.076801158      2.958539941      8.536673659     -0.586054674     -0.953712907      0.076549967       26
Fe     1.402093412      4.288414331     10.063409405     -0.098193514      0.599345221     -1.575457578       26
Fe    -0.137841050      5.644376644      0.046749288      0.834491627      0.122424618     -0.475512152       26
Fe     1.483457810      7.109154377      1.439140431     -0.859423100     -0.445666530     -0.289479472       26
Fe    -0.100754270      5.539819604      2.849204930      0.724377194      1.092422378     -0.467797558       26
Fe     1.544474694      7.159496818      4.328851050     -0.635970584     -1.156411736     -0.211329507       26
Fe     0.098066147      5.610271219      5.657056154     -1.044789350      1.226036180      0.009116360       26
Fe     1.435497929      7.239480233      7.102781123     -0.507607490     -0.889452299     -0.047130634       26
Fe    -0.003163556      5.777946881      8.485838082     -0.144144268     -0.214023509      0.790293850       26
Fe     1.486180005      7.141484552     10.031150377     -1.071449119     -0.243278292     -0.830906738       26
Fe    -0.018820057      8.495093776     -0.006795052     -0.107341756     -0.098336467      0.088866580       26
Fe     1.423788020     10.026254868      1.317841620     -1.223076583     -0.391334751      0.903114884       26
Fe     0.062428356      8.397933009      2.827999197     -0.983078762      0.256303500     -0.344515220       26
Fe     1.337275299      9.950921447      4.156420766     -0.168305439      0.962210660      0.378726061       26
Fe     0.097943429      8.500670708      5.646811013     -1.205007641      0.563656252      0.068828173       26
Fe     1.422280341      9.953120049      7.221381519     -1.005237557      0.082190968     -1.032630090       26
Fe    -0.060254339      8.499752225      8.549302040      0.804603582      0.338574686     -0.034833562       26
Fe     1.439936378      9.901045689      9.957127927     -1.112626878      1.032080902     -0.132130018       26
Fe     2.749628565     -0.046873162      0.009122594      1.307263498      1.206146126     -0.567826839       26
Fe     4.252700929      1.494387300      1.418176903     -0.304579561     -0.067141530     -0.414807379       26
Fe     2.828784660      0.128787562      2.736390824     -0.691895420     -0.355787707      0.551514989       26
Fe     4.141574640      1.414151071      4.275101477      0.732711168      0.343158706      0.482876049       26
Fe     2.792031723     -0.058057290      5.847969659      0.039449207      0.770589173     -2.004275927       26
Fe     4.357113671      1.498552840      6.984555091     -0.110551521     -0.490484714      0.505515640       26
Fe     2.734773462      0.183818194      8.343674262      1.317665667     -0.814686420      2.342193953       26
Fe     4.249168959      1.428005936      9.925746407     -0.262391872     -0.769923000     -0.343107284       26
Fe     2.772341716      2.880508729     -0.107409660      1.059520743     -0.078329171      1.632928932       26
Fe     4.346596028      4.236870104      1.219194110     -1.286799317     -0.543522458      1.348982474       26
Fe     2.879316067      2.889127747      2.908956792     -0.587254351      0.143593281     -0.884898618       26
Fe     4.269638172      4.385540108      4.303485490     -0.138990235     -0.870005246      0.068092838       26
Fe     2.872859449      2.929389451      5.675765077     -0.533296667      0.065774474      0.288729995       26
Fe     4.209468863      4.272711007      7.109495214      1.001395043      0.238509667     -0.078930295       26
Fe     3.043567980      2.858692412      8.570962679     -1.955371489      0.553375439     -0.596750206       26
Fe     4.352338137      4.275321546      9.940671568     -1.458973237      0.153363987     -0.236437100       26
Fe     2.787843016      5.738818492     -0.004675123      0.569278484     -0.699923946      0.093096816       26
Fe     4.247431838      7.063650309      1.393184324     -0.373260410      0.443962146     -0.162193412       26
Fe     2.835466900      5.633305010      2.788242735     -0.237154695     -0.177020707      0.007639776       26
Fe     4.312493164      6.945016680      4.154432497     -0.040266817      1.228207733      0.853947936       26
Fe     2.962789412      5.765013310      5.923582008     -1.081057588     -0.315857190     -2.389349527       26
Fe     4.313342938      7.238283490      7.026774054      0.513727229     -0.608272348      1.110450182       26
Fe     2.723130699      5.804367821      8.434500243      1.306689885     -0.570436251      1.460371403       26
Fe     4.299350735      7.066156061      9.897274020     -0.564015435      0.456778581     -0.385002638       26
Fe     2.851435188      8.634599328     -0.056263531      0.379587637     -1.068023638      0.919745293       26
Fe     4.275016662     10.080076221      1.504699122     -0.557906752     -1.171403324     -1.164568303       26
Fe     2.715210118      8.517374338      2.854776876      1.406069705      0.224549605     -0.623964561       26
Fe     4.148636685      9.954388209      4.099260570      0.252062465     -0.385156133      1.557685085       26
Fe     2.861013561      8.608983550      5.753127549      0.181247601     -0.456569036     -1.198880446       26
Fe     4.186947660      9.925867459      7.166928194      0.697020143      0.942400825     -0.392497403       26
Fe     2.749445310      8.543238113      8.490681713      1.058913705     -0.278643815      0.594182960       26
Fe     4.160491051      9.962158711      9.793515976      0.135584038      0.449206939      0.930861714       26
Fe     5.686465748     -0.037701433     -0.023874134     -0.432401438      0.491221335     -0.149693223       26
Fe     7.080168633      1.351890396      1.343853241      0.002256400      0.133941617      0.766151449       26
Fe     5.565931171      0.128455906      2.910743593      1.144958757     -0.635163515     -0.646290478       26
Fe     7.059839491      1.364943148      4.343593942      0.762550619      0.030175495     -0.948566073       26
Fe     5.686922173     -0.111891519      5.558577537     -0.346678289      1.308726198      1.130308354       26
Fe     7.275958095      1.519342532      7.156998013     -1.561755141     -1.116205853     -0.897300334       26
Fe     5.618373660      0.041461847      8.561657624     -0.208471726      0.776278253     -1.201508113       26
Fe     7.206591068      1.364401828      9.693565848     -0.622612161      0.286851547      1.611970071       26
Fe     5.682091395      2.631059157     -0.161615679      0.595777044      1.311926450      0.863915845       26
Fe     7.072499166      3.986704708      1.352116631      0.249887055      1.192349844     -0.065891717       26
Fe     5.622816382      2.910924648      2.924081359      0.246623297     -1.105796485     -0.507375062       26
Fe     6.996152461      4.302389578      4.313627466      1.594959910     -1.049101347     -0.932816267       26
Fe     5.850002575      2.805199405      5.628885659     -1.664312845      0.452175535      0.892281798       26
Fe     7.061598261      4.336636309      7.097808155      0.944732044     -0.707983840     -0.538323173       26
Fe     5.659458865      2.945722299      8.478295855      0.626085721     -1.408064110     -0.281790845       26
Fe     7.055912654      4.303602347      9.909966293      0.944891196     -1.090067762      0.331311577       26
Fe     5.612688065      5.665236701     -0.012782483      0.801937091     -0.018635355     -0.263484077       26
Fe     7.020327149      7.001544688      1.337295531     -0.062060516      0.490221176      0.486541414       26
Fe     5.755922793      5.517102576      2.658064635     -0.586256763      0.901041032      0.948894146       26
Fe     7.098532231      6.909457891      4.291129758     -0.220643842      1.765528434     -0.768619965       26
Fe     5.803889384      5.714808980      5.712252676     -1.479402708      0.071373308      0.413680465       26
Fe     7.152765034      7.174248358      7.168162046     -1.057905319     -0.776604012     -0.411274941       26
Fe     5.722583177      5.507506397      8.542105886     -0.694327940      2.698916514     -0.713325564       26
Fe     7.109414218      6.963389403      9.996050438     -0.755561847      1.036685233     -0.832329072       26
Fe     5.570194934      8.597969936     -0.068852978      0.563915677     -0.582963694      0.547436191       26
Fe     7.043755365      9.950867393      1.465365716     -0.456935932     -0.690269968     -0.203297381       26
Fe     5.557371557      8.455524785      2.779364930      1.045621102      0.104451579      0.550149733       26
Fe     7.134481377      9.841145448      4.264619640     -0.478678723      0.182455762     -0.484860941       26
Fe     5.740318566      8.745966382      5.816481132     -0.282613598     -1.844559001     -0.987056001       26
Fe     7.135282481     10.177563089      7.256088166     -0.279424659     -1.817410981     -1.515505367       26
Fe     5.650457980      8.625537951      8.544328890      0.118516027     -1.321130228     -0.423590525       26
Fe     7.009493752      9.985932502      9.788022600      0.843914206     -0.586003766      1.757003941       26
Fe     8.478985666     -0.130910155      0.034822031     -0.116807786      0.780465809     -0.846649860       26
Fe     9.876023381      1.296712905      1.442016059      0.700818690     -0.617203074     -0.000782387       26
Fe     8.423376187     -0.062663568      2.856432174      0.037853323      0.213508260     -0.181230888       26
Fe     9.966404442      1.248060752      4.256523036      0.082357575      0.291612973     -0.766580823       26
Fe     8.640634828     -0.066417464      5.666295311     -1.280352790      0.070561097      0.051326674       26
Fe     9.911998755      1.253391638      7.158817139      0.665088070      2.343778781     -0.284338808       26
Fe     8.667583746     -0.062235014      8.500120911     -1.012435103      0.541819359      0.885440607       26
Fe     9.958496261      1.340841895      9.915289505      0.018789879     -0.074685146      0.162902523       26
Fe     8.501027515      2.695784645     -0.122738370     -0.176252718      0.321178602      0.206590707       26
Fe     9.945908933      3.884663020      1.379604500     -0.543098483      2.074533377      0.087673331       26
Fe     8.533893603      2.778406334      2.880246326     -0.806146244     -0.797600668      0.073785260       26
Fe     9.987874731      4.099935387      4.205275498     -1.106031998      0.686271903      0.710330229       26
Fe     8.561938944      2.730038641      5.683354444     -0.032758939      0.926290293     -0.293721535       26
Fe     9.971191197      4.239004859      7.058901150     -0.455338763      0.277939847     -0.079842779       26
Fe     8.491360258      2.953594505      8.399574774      0.813986051     -0.371465780      1.010160962       26
Fe     9.892761853      4.274279167      9.895610029     -0.063560240     -0.035817009     -0.013855675       26
Fe     8.447636994      5.603484532      0.066058787      0.585850272     -0.452658902     -0.627648952       26
Fe     9.912369537      7.069245025      1.340178935     -0.099197786     -0.126453022      0.543658469       26
Fe     8.555577353      5.552651493      2.695687305     -0.407747387     -0.344196146      0.627465118       26
Fe     9.830358965      7.078848776      4.230123586      0.972538782     -0.352844051      0.226749955       26
Fe     8.544239915      5.599438627      5.567492439      0.399428840      0.179900085      1.063455559       26
Fe     9.957378009      7.112512125      7.066920215     -0.152375141     -0.191801722     -0.510846308       26
Fe     8.537761807      5.696578130      8.441647535     -0.150528575     -0.491751754      0.167957311       26
Fe     9.849714289      7.116443281      9.798421697      0.574856235     -0.709170405      1.843408433       26
Fe     8.366352775      8.466728023     -0.003399980      0.494272206      0.169389416     -0.212933618       26
Fe     9.835321562      9.843168831      1.386604773      0.815098825      0.207708108      0.458665256       26
Fe     8.406355693      8.291285452      2.759983004      0.061071412      1.215630411      0.554838654       26
Fe     9.849998453      9.835869602      4.145281431      1.000193567     -0.002102134      0.202567445       26
Fe     8.444691410      8.548303502      5.818132010      0.625401808     -0.315048321     -0.862001402       26
Fe     9.971439182      9.939538559      7.191865790      0.232010432     -1.008342678     -0.939009026       26
Fe     8.444764948      8.385742760      8.591046964      0.173589570      1.607446472     -0.692898150       26
Fe     9.903076145      9.879091705      9.896021071      0.538036495      0.275842084      1.023578007       26
126
Lattice="11.3344 0.0 0.0 0.0 11.3344 0.0 0.0 0.0 11.3344" Properties=species:S:1:pos:R:3:force:R:3:Z:I:1 config_type=doublevacancy_126_2NN_high config_name=doublevacancy_126_2NN_high_0001 ecutwfc=1224.51225528 pbc="T T T" kpoints="3 3 3" timestamp=1470309147.35 degauss=0.136056917253 energy=-436063.440065
Fe     1.245548709      1.172511966      1.363421006     -0.374798958      1.187020461     -0.337461141       26
Fe     1.310201657      1.406709278      4.265023416      0.088526423      0.213910637     -0.850387986       26
Fe     0.059983628     -0.070031574      5.786752758     -1.512888756      1.531361874     -0.157888100       26
Fe     1.404351939      1.648114419      7.217421257      0.784902504     -2.166699196     -1.037509015       26
Fe    -0.022410274     -0.066008723      8.522190461     -0.269043830      0.798578716     -0.853315187       26
Fe     1.242239688      1.380070333      9.868274119      1.379481414      0.400048990      0.884314978       26
Fe    -0.063841325      2.941287704     -0.030639637      0.503994576     -0.874447341      0.203228990       26
Fe     1.410839556      4.234505714      1.422761169     -0.197708831      0.199766485     -0.268145230       26
Fe    -0.010624901      2.846447032      2.835501572      0.047198768     -0.165296734      0.147243219       26
Fe     1.472501469      4.276639442      4.236514997     -1.241479253     -0.617678986      0.013869559       26
Fe     0.089778366      2.811362451      5.687071470     -1.064383727      0.433521153      0.005007480       26
Fe     1.351038911      4.324717881      7.184688644      0.683190950      0.449163745     -0.712847596       26
Fe    -0.030855354      2.741940906      8.481378902      0.237087847      1.464223944      1.184259096       26
Fe     1.497212377      4.311668893      9.848460749     -0.575478956     -0.376499228      1.068486694       26
Fe    -0.033928846      5.666694599     -0.025212693      0.374679659     -0.730126695      0.384462192       26
Fe     1.349335022      7.006175414      1.529051897      0.823461338      0.638213872     -0.609339613       26
Fe    -0.100728881      5.691591549      2.880024478      0.326332379     -1.110722719     -0.112172858       26
Fe     1.417339041      6.998832593      4.302802377     -0.189513440      1.224741115     -0.586238508       26
Fe    -0.049007214      5.720775646      5.813086185      0.682152739     -1.046420458     -0.997511649       26
Fe     1.585228470      7.160903292      6.965599135     -1.439287843     -0.328798066      0.973775739       26
Fe    -0.020788559      5.691186016      8.597673269      0.548861097      0.342739359     -0.935760951       26
Fe     1.444452978      7.115916242      9.942758084      0.314758558     -0.345537490     -0.078693753       26
Fe     0.111338231      8.388436788      0.023630218     -0.886964756      0.375496498     -0.172635691       26
Fe     1.279859536     10.017491892      1.270527006      0.317952896     -0.286765158      0.710734149       26
Fe    -0.046189187      8.441068743      2.870414596      0.400037935      0.151119414      0.161951986       26
Fe     1.299961536     10.113871877      4.304591829      0.128080273     -1.248379580     -1.603517827       26
Fe    -0.108118196      8.472771219      5.597250555      1.726167416      0.360642207      0.661090262       26
Fe     1.444721308     10.081208448      7.048134819      0.530076617     -1.335830253      0.996991515       26
Fe     0.176816085      8.516398560      8.564104381     -1.249097175     -0.247710102     -0.717904185       26
Fe     1.310765498     10.084826638      9.970461250      1.261831334     -0.615670954      0.064605137       26
Fe     2.880727302      0.097061171     -0.122945778     -0.355490745     -0.161711331      0.632232458       26
Fe     4.284885683      1.447365873      1.395393274      0.133200625     -0.586368606      0.482636165       26
Fe     2.749004119      0.060317166      2.769459809      0.777588744     -0.517997575      0.547345431       26
Fe     4.184020721      1.314580487      4.435511675      0.320199269      0.870777348     -2.378217165       26
Fe     2.706230043      0.160814904      5.604240933      0.879718359     -1.147866931      1.369807638       26
Fe     4.362402993      1.431394162      7.047718280     -1.495878594      0.584589917      0.654640393       26
Fe     3.056850549      0.118541015      8.409970958     -2.338711394     -0.282564490      0.131648450       26
Fe     4.294252227      1.449435999      9.872695612      0.156208913      0.742094923     -0.154733100       26
Fe     2.955580529      2.826769539      0.100875616     -1.278259141      0.164199387     -1.305502292       26
Fe     4.298766843      4.265673047      1.480101105      0.105847688     -0.276233406     -0.509727621       26
Fe     2.789422918      2.715059665      2.686519192      0.163483592      0.525596984      1.564690570       26
Fe     4.325623160      4.194941438      4.257589659     -1.062773445     -0.402894944     -0.350091685       26
Fe     2.740020224      2.917563320      5.652788537      0.814740413     -0.408148994      0.236713494       26
Fe     4.240461273      4.320862746      6.963489497     -0.272935966     -0.202811700      1.349802913       26
Fe     2.854720090      3.003924851      8.480488710      0.436491806     -1.263467584      0.057591424       26
Fe     4.262411268      4.192512522      9.904554276      0.681948079      0.998257269     -0.039050686       26
Fe     2.844440685      5.735920989     -0.011632313      0.004692263     -0.755253057      0.243897670       26
Fe     4.096093966      7.141878264      1.428179919      1.486020985     -0.313666353      0.255132362       26
Fe     2.819592676      5.599873041      2.916749340      0.336924038      0.514033448     -0.918158922       26
Fe     4.327398127      7.061488930      4.186677640     -1.081773898      0.716621461      0.191967044       26
Fe     2.792275616      5.665592079      5.587747862      0.695576211      0.266733694      0.914729328       26
Fe     4.268571707      7.238858462      7.105765210     -0.281409551     -0.964925745     -1.155975162       26
Fe     2.958214757      5.775880325      8.537358903     -0.832226485     -0.617561229     -0.722031577       26
Fe     4.281790190      7.144336956      9.862590598     -0.217271841     -0.063266363      0.953317472       26
Fe     2.939231666      8.535402370     -0.029175154     -1.379577316      0.377210653     -0.043735750       26
Fe     4.216141878     10.031799747      1.363482359      0.039960085     -0.542785323      0.445948837       26
Fe     2.813701747      8.631037345      2.841102885     -0.529245379     -0.509386693      0.023052768       26
Fe     4.294114899      9.848119221      4.261186971     -0.531995174      1.606142666     -0.492509715       26
Fe     2.835343559      8.672028067      5.621529679     -0.148212782     -1.016188142     -0.134409815       26
Fe     4.313507582      9.880071632      7.049180304     -0.278347110      0.916891625     -0.067836756       26
Fe     2.791733016      8.473919133      8.470370310      0.465127467      1.403184928      0.247776436       26
Fe     4.182750418     10.045543093      9.811206945      0.919511065     -0.964503827      0.581116871       26
Fe     5.662251696      0.058615770      0.036494966      0.065915114     -0.365496707     -0.667978247       26
Fe     7.115893029      1.339952371      1.417717304     -0.353019658      0.372244567     -0.356717675       26
Fe     5.665188189     -0.010966440      2.875494595     -0.597071337      0.126647655     -0.405417454       26
Fe     7.213388909      1.374809822      4.279940847     -0.977318719     -0.237386352      1.124527743       26
Fe     5.708134401      0.054810075      5.733430186      0.174217947     -1.122766023     -0.675043896       26
Fe     7.107388489      1.457094835      7.049087180      0.444916282      0.131285153      0.320811706       26
Fe     5.706642329      0.070437277      8.434282725      0.242303843     -0.746865862      0.425672090       26
Fe     7.031658512      1.404589836      9.840224086      0.664467920      0.122102716      0.175161799       26
Fe     5.745434937      2.775280398     -0.045954078     -0.656907591      0.752017067      0.194540975       26
Fe     7.034512581      4.118067038      1.485122108      0.316117129      0.387486838     -0.350451897       26
Fe     5.784274389      2.647105471      2.971845031     -1.105254497      0.848739395     -0.791325634       26
Fe     7.130255267      4.118591820      4.280506955     -0.310134429      0.626578088      0.129140596       26
Fe     5.520954481      2.735532255      5.670817634      2.015034965      1.295243334     -0.289005361       26
Fe     7.086331089      4.341649627      6.969543631     -0.271582794     -0.306585278      0.569600386       26
Fe     5.763957602      2.977529901      8.368352175     -0.635921991     -0.730479707      0.685668722       26
Fe     7.191275982      4.231563825      9.785956475     -1.316074154      0.380583426      0.282337719       26
Fe     5.661494512      5.669755046     -0.103800719     -0.265893972     -0.423755590      0.801965630       26
Fe     6.949182072      7.043589951      1.369615743      0.791223561     -0.196426108      0.209729510       26
Fe     5.650250640      5.564229062      2.919237796      0.472282076      0.633070123     -0.828157715       26
Fe     7.015905237      7.159023776      4.257837905      0.480536859     -1.409967240      0.102241972       26
Fe     5.481814486      5.679471630      5.696563339      2.049011579      0.585003093     -0.593205426       26
Fe     7.080084157      7.170628082      7.105544972      0.270526585     -0.403481156     -0.840398994       26
Fe     5.716209844      5.869931181      8.453465086     -0.402957679     -2.050748102      0.016870036       26
Fe     7.068199529      7.085982613      9.919863049      0.082912933      0.107607865     -0.089262787       26
Fe     5.654038574      8.597009175     -0.025695901     -0.755268484     -0.937696992     -0.229034380       26
Fe     7.054345175      9.799653248      1.303567156      0.565670197      1.080936489      1.011878716       26
Fe     5.733355662      8.592044992      2.765929098     -1.236080451     -0.952458466      0.078872702       26
Fe     7.058032198      9.983206579      4.168004126      0.277504045     -0.757988454      1.147264008       26
Fe     5.707903973      8.538817686      5.548327488     -0.150512120     -0.006519803      1.302674079       26
Fe     7.143620746      9.876025625      7.137145369     -0.409825353      0.552401506     -0.306378561       26
Fe     5.630476068      8.463829987      8.515497589      0.781999214      1.683893595      0.114945536       26
Fe     7.070927912      9.951398818     10.023279894     -0.051591498      0.166269639     -1.656230840       26
Fe     8.548711461     -0.085292233      0.024299423     -0.471463694      0.367230659      0.160711429       26
Fe     9.952744789      1.276419988      1.572423794      0.397791819     -0.250998543     -1.069876632       26
Fe     8.300211882     -0.037264243      2.774292514      1.842580280     -0.917755516      0.386962075       26
Fe     9.932837049      1.229257073      4.296787777      0.945187644      0.220174616     -0.151693027       26
Fe     8.538288041     -0.059940388      5.687763866     -0.325266399      0.284024105      0.434681749       26
Fe     9.941722165      1.499367658      7.130944546      0.154333550     -1.625731900     -0.399279202       26
Fe     8.484786850      0.090604802      8.503259202      0.577626341     -1.108760196      0.145026928       26
Fe     9.937202448      1.285263449     10.044872708      0.290114020      0.280627164     -0.121223913       26
Fe     8.362599457      2.757965107     -0.104888436      1.475193298      0.022679186      0.968618107       26
Fe     9.828670060      4.134285261      1.401567122      0.173912758      0.450722862      0.045190994       26
Fe     8.589871598      2.602442710      2.956874782     -0.374737766      1.712100654     -0.898187107       26
Fe     9.915159998      4.133060511      4.352146268      0.342862000      0.750433524     -0.672352979       26
Fe     8.591233256      2.874535625      5.817447265     -0.709247023     -0.699950172     -1.170949781       26
Fe     9.948507345      4.217289905      7.158500274      0.212973727      0.964790248     -0.784913046       26
Fe     8.682809201      2.877392789      8.549064006     -2.059886317     -0.872457050     -0.703508835       26
Fe     9.940486182      4.214847467      9.803159657     -0.010331721      0.321799524      1.619264805       26
Fe     8.403154733      5.539787176     -0.051805972      0.390735683      0.394644532      0.739790700       26
Fe     9.969960712      7.083358530      1.325836544     -1.329210691     -0.407428313      0.819837368       26
Fe     8.477049003      5.605616963      2.770957548     -0.134610104      0.068591375      0.534560878       26
Fe     9.916108608      6.974317023      4.358035871     -0.566021667      0.518849381     -1.126902414       26
Fe     8.456759169      5.641516760      5.612205616      0.048982600      0.347954327      0.521151290       26
Fe    10.001477280      7.095488741      7.085707267     -0.779938475      0.205505958      0.907257702       26
Fe     8.489938936      5.697024343      8.398080266      0.069763027     -0.039417325      0.354185396       26
Fe     9.811912659      6.907603651      9.978613268      0.784147371      1.579212160     -0.622768484       26
Fe     8.482995188      8.479271894     -0.098866673      0.475111575     -0.391467162      1.213927827       26
Fe     9.954001797      9.878079701      1.493383719      0.090017406      0.220417328     -0.219312268       26
Fe     8.430090482      8.355667802      2.926030593      0.717194303      0.680016923     -1.154127825       26
Fe     9.843297091      9.858333805      4.277485623      0.433832257      0.510165737     -0.920722569       26
Fe     8.558287034      8.501357188      5.721245332     -1.028273870     -0.407342181     -0.429413559       26
Fe     9.945378960      9.836806323      7.045414030     -0.026659511      0.595225028      1.326257779       26
Fe     8.490015239      8.512128721      8.581177161      0.576161841     -0.063710393     -0.369812303       26
Fe    10.079445008      9.883891800     10.009050133     -0.873359507      0.123668775     -0.018435581       26
126
Lattice="11.3344 0.0 0.0 0.0 11.3344 0.0 0.0 0.0 11.3344" Properties=species:S:1:pos:R:3:force:R:3:Z:I:1 config_type=doublevacancy_126_2NN_high config_name=doublevacancy_126_2NN_high_0002 ecutwfc=1224.51225528 pbc="T T T" kpoints="3 3 3" timestamp=1470309147.35 degauss=0.136056917253 energy=-436062.662356
Fe     1.205232373      1.239552313      1.389166948      1.012575999     -0.182031787     -0.070976587       26
Fe     1.219264780      1.413781343      4.104134294      0.570434966     -0.388746935      0.494835792       26
Fe    -0.074891413      0.030105515      5.757652400      0.848144699     -0.763222705     -0.469811246       26
Fe     1.451370793      1.328559644      7.056164130     -0.842500356      0.929346563      0.385288030       26
Fe    -0.123761934     -0.076065476      8.379426292      1.028786548      0.708726632      0.960372579       26