1
Lattice="2.825806294 0.0 0.0 0.0 2.825806294 0.0 1.412903147 1.412903147 1.412903147" Properties=species:S:1:pos:R:3:force:R:3:Z:I:1 config_type=slice_sample_high degauss=0.136056917253 ecutwfc=1224.51225528 pbc="T T T" kpoints="34 34 48" energy=-3460.93278867 config_name=prim_c_0000 virial="0.122680669647 6.21535099113e-05 0.000196819448052 6.21535099113e-05 0.122680669647 0.000196819448052 0.000196819448052 0.000196819448052 0.121385804857"
Fe      0.00000000       0.00000000       0.00000000       0.00000000       0.00000000       0.00000000       26
1
Lattice="3.036905137 0.0 0.0 0.0 2.825806824 0.0 1.412901893 1.412901893 1.412901893" Properties=species:S:1:pos:R:3:force:R:3:Z:I:1 config_type=slice_sample_high degauss=0.136056917253 ecutwfc=1224.51225528 pbc="T T T" kpoints="32 34 48" energy=-3460.88242653 config_name=prim_c_0001 virial="-0.95880916704 -0.00011132762462 0.43726151122 -0.00011132762462 -0.473064475298 -4.4531049848e-05 0.43726151122 -4.4531049848e-05 -0.513387340935"
Fe      0.00000000       0.00000000       0.00000000       0.00000000       0.00000000       0.00000000       26
1
Lattice="3.036905137 0.0 0.0 -0.073383776 2.825806824 0.0 1.412901893 1.412901893 1.412901893" Properties=species:S:1:pos:R:3:force:R:3:Z:I:1 config_type=slice_sample_high degauss=0.136056917253 ecutwfc=1224.51225528 pbc="T T T" kpoints="32 34 48" energy=-3460.88970312 config_name=prim_c_0002 virial="-0.972235278569 0.127770714776 0.255919943476 0.127770714776 -0.525421857157 0.0574450543039 0.255919943476 0.0574450543039 -0.537300514703"
Fe      0.00000000       0.00000000       0.00000000       0.00000000       0.00000000       0.00000000       26
1
Lattice="3.036905137 0.0 0.0 -0.073383776 2.751867294 0.0 1.412901893 1.412901893 1.412901893" Properties=species:S:1:pos:R:3:force:R:3:Z:I:1 config_type=slice_sample_high degauss=0.136056917253 ecutwfc=1224.51225528 pbc="T T T" kpoints="32 35 48" energy=-3460.89665468 config_name=prim_c_0003 virial="-0.727483963816 0.0903852911438 0.280403642814 0.0903852911438 -0.0186039534128 -0.0841189245514 0.280403642814 -0.0841189245514 -0.315128854225"
Fe      0.00000000       0.00000000       0.00000000       0.00000000       0.00000000       0.00000000       26
1
Lattice="3.036905137 0.0 0.0 -0.073383776 2.751867294 0.0 1.530390642 1.412901893 1.412901893" Properties=species:S:1:pos:R:3:force:R:3:Z:I:1 config_type=slice_sample_high degauss=0.136056917253 ecutwfc=1224.51225528 pbc="T T T" kpoints="33 35 48" energy=-3460.89760721 config_name=prim_c_0004 virial="-0.733761171873 0.173604374126 -0.239141028194 0.173604374126 -0.0377499800603 -0.186928534233 -0.239141028194 -0.186928534233 -0.326317245788"
Fe      0.00000000       0.00000000       0.00000000       0.00000000       0.00000000       0.00000000       26
1
Lattice="3.036905137 0.0 0.0 -0.073383776 2.751867294 0.0 1.530390642 1.436565458 1.412901893" Properties=species:S:1:pos:R:3:force:R:3:Z:I:1 config_type=slice_sample_high degauss=0.136056917253 ecutwfc=1224.51225528 pbc="T T T" kpoints="33 35 48" energy=-3460.89372646 config_name=prim_c_0005 virial="-0.701334350977 0.201065804193 -0.263144031023 0.201065804193 -0.0321883086729 -0.27542741052 -0.263144031023 -0.27542741052 -0.302661169829"
Fe      0.00000000       0.00000000       0.00000000       0.00000000       0.00000000       0.00000000       26
1
Lattice="3.036905137 0.0 0.0 -0.073383776 2.751867294 0.0 1.530390642 1.436565458 1.447966" Properties=species:S:1:pos:R:3:force:R:3:Z:I:1 config_type=slice_sample_high degauss=0.136056917253 ecutwfc=1224.51225528 pbc="T T T" kpoints="33 35 47" energy=-3460.88197863 config_name=prim_c_0006 virial="-0.87571993782 0.17106864947 -0.244475843538 0.17106864947 -0.217043973982 -0.223043653836 -0.244475843538 -0.223043653836 -0.642843475334"
Fe      0.00000000       0.00000000       0.00000000       0.00000000       0.00000000       0.00000000       26
1
Lattice="2.883346378 0.0 0.0 -0.073384049 2.751868666 0.0 1.530390874 1.436566782 1.447967534" Properties=species:S:1:pos:R:3:force:R:3:Z:I:1 config_type=slice_sample_high degauss=0.136056917253 ecutwfc=1224.51225528 pbc="T T T" kpoints="35 35 47" energy=-3460.88282885 config_name=prim_c_0007 virial="-0.140308789712 0.312221604232 -0.760732928265 0.312221604232 0.394512324369 -0.427245064349 -0.760732928265 -0.427245064349 -0.0321631080243"
Fe      0.00000000       0.00000000       0.00000000       0.00000000       0.00000000       0.00000000       26
1
Lattice="2.883346378 0.0 0.0 -0.301834466 2.751868666 0.0 1.530390874 1.436566782 1.447967534" Properties=species:S:1:pos:R:3:force:R:3:Z:I:1 config_type=slice_sample_high degauss=0.136056917253 ecutwfc=1224.51225528 pbc="T T T" kpoints="36 35 47" energy=-3460.73172567 config_name=prim_c_0008 virial="-0.0429017252656 0.969239321577 -1.62705874316 0.969239321577 0.898172460717 -1.1239787875 -1.62705874316 -1.1239787875 0.695003729806"
Fe      0.00000000       0.00000000       0.00000000       0.00000000       0.00000000       0.00000000       26
1
Lattice="2.883346378 0.0 0.0 -0.301834466 2.814246982 0.0 1.530390874 1.436566782 1.447967534" Properties=species:S:1:pos:R:3:force:R:3:Z:I:1 config_type=slice_sample_high degauss=0.136056917253 ecutwfc=1224.51225528 pbc="T T T" kpoints="36 34 47" energy=-3460.76857546 config_name=prim_c_0009 virial="-0.323840612083 0.837612195096 -1.40741589574 0.837612195096 0.423142815162 -0.856188880995 -1.40741589574 -0.856188880995 0.277614654431"
Fe      0.00000000       0.00000000       0.00000000       0.00000000       0.00000000       0.00000000       26
1
Lattice="2.883346378 0.0 0.0 -0.301834466 2.814246982 0.0 1.326719935 1.436566782 1.447967534" Properties=species:S:1:pos:R:3:force:R:3:Z:I:1 config_type=slice_sample_high degauss=0.136056917253 ecutwfc=1224.51225528 pbc="T T T" kpoints="34 34 47" energy=-3460.88241945 config_name=prim_c_0010 virial="-0.372677230588 0.745020037679 -0.263223656179 0.745020037679 -0.0802292758607 -0.276115142619 -0.263223656179 -0.276115142619 -0.233934630502"
Fe      0.00000000       0.00000000       0.00000000       0.00000000       0.00000000       0.00000000       26
1
Lattice="2.883346378 0.0 0.0 -0.301834466 2.814246982 0.0 1.326719935 1.25557048 1.447967534" Properties=species:S:1:pos:R:3:force:R:3:Z:I:1 config_type=slice_sample_high degauss=0.136056917253 ecutwfc=1224.51225528 pbc="T T T" kpoints="33 32 47" energy=-3460.8545671 config_name=prim_c_0011 virial="-0.182778623223 0.726119716137 0.263709109643 0.726119716137 -0.0707899029445 0.765495386016 0.263709109643 0.765495386016 -0.0895607702294"
Fe      0.00000000       0.00000000       0.00000000       0.00000000       0.00000000       0.00000000       26
1
Lattice="2.883346378 0.0 0.0 -0.301834466 2.814246982 0.0 1.326719935 1.25557048 1.408604089" Properties=species:S:1:pos:R:3:force:R:3:Z:I:1 config_type=slice_sample_high degauss=0.136056917253 ecutwfc=1224.51225528 pbc="T T T" kpoints="34 32 48" energy=-3460.85005845 config_name=prim_c_0012 virial="0.14984166457 0.837373319633 0.283689583741 0.837373319633 0.256655536401 0.826784284785 0.283689583741 0.826784284785 0.418964766282"
Fe      0.00000000       0.00000000       0.00000000       0.00000000       0.00000000       0.00000000       26
1
Lattice="2.843784031 0.0 0.0 -0.30183355 2.814245646 0.0 1.326721939 1.255570463 1.408603013" Properties=species:S:1:pos:R:3:force:R:3:Z:I:1 config_type=slice_sample_high degauss=0.136056917253 ecutwfc=1224.51225528 pbc="T T T" kpoints="34 32 48" energy=-3460.84796807 config_name=prim_c_0013 virial="0.418204623021 0.824081711491 0.151273650269 0.824081711491 0.429631657568 0.836657659837 0.151273650269 0.836657659837 0.595975744702"
Fe      0.00000000       0.00000000       0.00000000       0.00000000       0.00000000       0.00000000       26
1
Lattice="2.843784031 0.0 0.0 0.216721937 2.814245646 0.0 1.326721939 1.255570463 1.408603013" Properties=species:S:1:pos:R:3:force:R:3:Z:I:1 config_type=slice_sample_high degauss=0.136056917253 ecutwfc=1224.51225528 pbc="T T T" kpoints="32 32 48" energy=-3460.81267722 config_name=prim_c_0014 virial="0.423183249486 -0.203523351709 1.11209680505 -0.203523351709 0.643195066804 0.705753940716 1.11209680505 0.705753940716 0.705836745314"
Fe      0.00000000       0.00000000       0.00000000       0.00000000       0.00000000       0.00000000       26
1
Lattice="2.843784031 0.0 0.0 0.216721937 2.859510157 0.0 1.326721939 1.255570463 1.408603013" Properties=species:S:1:pos:R:3:force:R:3:Z:I:1 config_type=slice_sample_high degauss=0.136056917253 ecutwfc=1224.51225528 pbc="T T T" kpoints="32 32 48" energy=-3460.80915403 config_name=prim_c_0015 virial="0.285254058132 -0.146176534822 1.03525673658 -0.146176534822 0.314817497184 0.870959317559 1.03525673658 0.870959317559 0.524948237938"
Fe      0.00000000       0.00000000       0.00000000       0.00000000       0.00000000       0.00000000       26
1
Lattice="2.843784031 0.0 0.0 0.216721937 2.859510157 0.0 1.327907797 1.255570463 1.408603013" Properties=species:S:1:pos:R:3:force:R:3:Z:I:1 config_type=slice_sample_high degauss=0.136056917253 ecutwfc=1224.51225528 pbc="T T T" kpoints="32 32 48" energy=-3460.81002193 config_name=prim_c_0016 virial="0.285464399214 -0.148669076642 1.02620155301 -0.148669076642 0.310905153062 0.870875181126 1.02620155301 0.870875181126 0.521719502332"
Fe      0.00000000       0.00000000       0.00000000       0.00000000       0.00000000       0.00000000       26
1
Lattice="2.843784031 0.0 0.0 0.216721937 2.859510157 0.0 1.327907797 1.469926372 1.408603013" Properties=species:S:1:pos:R:3:force:R:3:Z:I:1 config_type=slice_sample_high degauss=0.136056917253 ecutwfc=1224.51225528 pbc="T T T" kpoints="32 34 48" energy=-3460.81641606 config_name=prim_c_0017 virial="0.0386922420037 -0.71941908515 1.23152600004 -0.71941908515 0.43766720603 -0.732302476412 1.23152600004 -0.732302476412 0.496373401971"
Fe      0.00000000       0.00000000       0.00000000       0.00000000       0.00000000       0.00000000       26
1
Lattice="2.843784031 0.0 0.0 0.216721937 2.859510157 0.0 1.327907797 1.469926372 1.378302494" Properties=species:S:1:pos:R:3:force:R:3:Z:I:1 config_type=slice_sample_high degauss=0.136056917253 ecutwfc=1224.51225528 pbc="T T T" kpoints="32 35 49" energy=-3460.8007204 config_name=prim_c_0018 virial="0.303990861094 -0.794111806974 1.29921618866 -0.794111806974 0.75176507734 -0.781310025282 1.29921618866 -0.781310025282 0.940097397884"
Fe      0.00000000       0.00000000       0.00000000       0.00000000       0.00000000       0.00000000       26
1
Lattice="2.686025193 0.0 0.0 0.216721943 2.859512874 0.0 1.327906391 1.469927287 1.378304281" Properties=species:S:1:pos:R:3:force:R:3:Z:I:1 config_type=slice_sample_high degauss=0.136056917253 ecutwfc=1224.51225528 pbc="T T T" kpoints="34 35 49" energy=-3460.80266506 config_name=prim_c_0019 virial="1.4970390972 -0.870412708439 0.920995380883 -0.870412708439 1.20814244263 -0.66543818951 0.920995380883 -0.66543818951 1.48756213609"
Fe      0.00000000       0.00000000       0.00000000       0.00000000       0.00000000       0.00000000       26
1
Lattice="2.686025193 0.0 0.0 -0.020118329 2.859512874 0.0 1.327906391 1.469927287 1.378304281" Properties=species:S:1:pos:R:3:force:R:3:Z:I:1 config_type=slice_sample_high degauss=0.136056917253 ecutwfc=1224.51225528 pbc="T T T" kpoints="35 35 49" energy=-3460.87830359 config_name=prim_c_0020 virial="1.5003536036 0.0674759631261 0.022851626233 0.0674759631261 0.815135295258 -0.309366890576 0.022851626233 -0.309366890576 1.16013555962"
Fe      0.00000000       0.00000000       0.00000000       0.00000000       0.00000000       0.00000000       26
1
Lattice="2.686025193 0.0 0.0 -0.020118329 2.854788155 0.0 1.327906391 1.469927287 1.378304281" Properties=species:S:1:pos:R:3:force:R:3:Z:I:1 config_type=slice_sample_high degauss=0.136056917253 ecutwfc=1224.51225528 pbc="T T T" kpoints="35 35 49" energy=-3460.8763505 config_name=prim_c_0021 virial="1.52568597517 0.0677817415698 0.0225615675232 0.0677817415698 0.851944197477 -0.33005875104 0.0225615675232 -0.33005875104 1.18559339152"
Fe      0.00000000       0.00000000       0.00000000       0.00000000       0.00000000       0.00000000       26
1
Lattice="2.686025193 0.0 0.0 -0.020118329 2.854788155 0.0 1.221703641 1.469927287 1.378304281" Properties=species:S:1:pos:R:3:force:R:3:Z:I:1 config_type=slice_sample_high degauss=0.136056917253 ecutwfc=1224.51225528 pbc="T T T" kpoints="34 35 49" energy=-3460.84678084 config_name=prim_c_0022 virial="1.53407984868 -0.0282577568291 0.744395873666 -0.0282577568291 1.04480921018 -0.322848753332 0.744395873666 -0.322848753332 1.30985183115"
Fe      0.00000000       0.00000000       0.00000000       0.00000000       0.00000000       0.00000000       26
1
Lattice="2.686025193 0.0 0.0 -0.020118329 2.854788155 0.0 1.221703641 1.399999307 1.378304281" Properties=species:S:1:pos:R:3:force:R:3:Z:I:1 config_type=slice_sample_high degauss=0.136056917253 ecutwfc=1224.51225528 pbc="T T T" kpoints="34 34 49" energy=-3460.8485108 config_name=prim_c_0023 virial="1.51850508916 0.136873509641 0.754837270077 0.136873509641 1.04089853847 0.253679354061 0.754837270077 0.253679354061 1.30050697544"
Fe      0.00000000       0.00000000       0.00000000       0.00000000       0.00000000       0.00000000       26
1
Lattice="2.686025193 0.0 0.0 -0.020118329 2.854788155 0.0 1.221703641 1.399999307 1.343761997" Properties=species:S:1:pos:R:3:force:R:3:Z:I:1 config_type=slice_sample_high degauss=0.136056917253 ecutwfc=1224.51225528 pbc="T T T" kpoints="34 34 50" energy=-3460.80735032 config_name=prim_c_0024 virial="1.8586882113 0.152336293562 0.806288698223 0.152336293562 1.42853827592 0.27116276525 0.806288698223 0.27116276525 1.94046655694"
Fe      0.00000000       0.00000000       0.00000000       0.00000000       0.00000000       0.00000000       26
1
Lattice="2.797519126 0.0 0.0 -0.020119758 2.85478714 0.0 1.22170178 1.399998864 1.343763135" Properties=species:S:1:pos:R:3:force:R:3:Z:I:1 config_type=slice_sample_high degauss=0.136056917253 ecutwfc=1224.51225528 pbc="T T T" kpoints="33 34 50" energy=-3460.8276711 config_name=prim_c_0025 virial="0.930576185022 0.171902671734 1.09424140212 0.171902671734 1.08677251383 0.259134951504 1.09424140212 0.259134951504 1.50132537438"
Fe      0.00000000       0.00000000       0.00000000       0.00000000       0.00000000       0.00000000       26
1
Lattice="2.63036898 0.0 0.0 0.0 2.825805395 0.0 1.412902697 1.412902697 1.412902697" Properties=species:S:1:pos:R:3:force:R:3:Z:I:1 config_type=slice_sample_high degauss=0.136056917253 ecutwfc=1224.51225528 pbc="T T T" kpoints="36 34 48" energy=-3460.84048793 config_name=prim_c_0026 virial="1.8816706939 0.000154279563309 -0.659921189582 0.000154279563309 1.13705966653 0.000308559126618 -0.659921189582 0.000308559126618 1.11876789581"
Fe      0.00000000       0.00000000       0.00000000       0.00000000       0.00000000       0.00000000       26
1
Lattice="2.63036898 0.0 0.0 -0.030070378 2.825805395 0.0 1.412902697 1.412902697 1.412902697" Properties=species:S:1:pos:R:3:force:R:3:Z:I:1 config_type=slice_sample_high degauss=0.136056917253 ecutwfc=1224.51225528 pbc="T T T" kpoints="37 34 48" energy=-3460.83239404 config_name=prim_c_0027 virial="1.87454490657 0.101679874693 -0.76147571213 0.101679874693 1.18826119661 -0.0427450815093 -0.76147571213 -0.0427450815093 1.16248686706"
Fe      0.00000000       0.00000000       0.00000000       0.00000000       0.00000000       0.00000000       26
1
Lattice="2.63036898 0.0 0.0 -0.030070378 2.869806207 0.0 1.412902697 1.412902697 1.412902697" Properties=species:S:1:pos:R:3:force:R:3:Z:I:1 config_type=slice_sample_high degauss=0.136056917253 ecutwfc=1224.51225528 pbc="T T T" kpoints="37 33 48" energy=-3460.84749595 config_name=prim_c_0028 virial="1.67960017315 0.0443703445405 -0.680087410725 0.0443703445405 0.854914989864 0.136949739218 -0.680087410725 0.136949739218 0.940267433699"
Fe      0.00000000       0.00000000       0.00000000       0.00000000       0.00000000       0.00000000       26
1
Lattice="2.63036898 0.0 0.0 -0.030070378 2.869806207 0.0 1.45790305 1.412902697 1.412902697" Properties=species:S:1:pos:R:3:force:R:3:Z:I:1 config_type=slice_sample_high degauss=0.136056917253 ecutwfc=1224.51225528 pbc="T T T" kpoints="37 33 48" energy=-3460.82153303 config_name=prim_c_0029 virial="1.65080988117 0.0269590727257 -0.953320991252 0.0269590727257 1.03930995515 0.1266772847 -0.953320991252 0.1266772847 1.09206277926"
Fe      0.00000000       0.00000000       0.00000000       0.00000000       0.00000000       0.00000000       26
1
Lattice="2.63036898 0.0 0.0 -0.030070378 2.869806207 0.0 1.45790305 1.569359675 1.412902697" Properties=species:S:1:pos:R:3:force:R:3:Z:I:1 config_type=slice_sample_high degauss=0.136056917253 ecutwfc=1224.51225528 pbc="T T T" kpoints="37 35 48" energy=-3460.76341455 config_name=prim_c_0030 virial="1.82475612485 0.499589906736 -1.08874308232 0.499589906736 1.11340089022 -1.18632650394 -1.08874308232 -1.18632650394 1.36878253119"
Fe      0.00000000       0.00000000       0.00000000       0.00000000       0.00000000       0.00000000       26
1
Lattice="2.63036898 0.0 0.0 -0.030070378 2.869806207 0.0 1.45790305 1.569359675 1.503795098" Properties=species:S:1:pos:R:3:force:R:3:Z:I:1 config_type=slice_sample_high degauss=0.136056917253 ecutwfc=1224.51225528 pbc="T T T" kpoints="36 34 45" energy=-3460.81058289 config_name=prim_c_0031 virial="0.963588171501 0.376724077996 -0.830846219437 0.376724077996 0.176193679306 -0.932716495778 -0.830846219437 -0.932716495778 0.179164114006"
Fe      0.00000000       0.00000000       0.00000000       0.00000000       0.00000000       0.00000000       26
1
Lattice="2.68495308 0.0 0.0 -0.03006879 2.869806729 0.0 1.457902673 1.569360445 1.503793891" Properties=species:S:1:pos:R:3:force:R:3:Z:I:1 config_type=slice_sample_high degauss=0.136056917253 ecutwfc=1224.51225528 pbc="T T T" kpoints="35 34 45" energy=-3460.84139788 config_name=prim_c_0032 virial="0.533676903841 0.323272260433 -0.677748283779 0.323272260433 -0.117601907682 -0.834150097134 -0.677748283779 -0.834150097134 -0.168604580509"
Fe      0.00000000       0.00000000       0.00000000       0.00000000       0.00000000       0.00000000       26
1
Lattice="2.68495308 0.0 0.0 0.414782292 2.869806729 0.0 1.457902673 1.569360445 1.503793891" Properties=species:S:1:pos:R:3:force:R:3:Z:I:1 config_type=slice_sample_high degauss=0.136056917253 ecutwfc=1224.51225528 pbc="T T T" kpoints="33 34 45" energy=-3460.75837024 config_name=prim_c_0033 virial="0.436661181374 -1.08462067001 0.968614590639 -1.08462067001 0.18310534043 -1.22530889393 0.968614590639 -1.22530889393 0.342613699565"
Fe      0.00000000       0.00000000       0.00000000       0.00000000       0.00000000       0.00000000       26
1
Lattice="2.68495308 0.0 0.0 0.414782292 2.895005014 0.0 1.457902673 1.569360445 1.503793891" Properties=species:S:1:pos:R:3:force:R:3:Z:I:1 config_type=slice_sample_high degauss=0.136056917253 ecutwfc=1224.51225528 pbc="T T T" kpoints="33 34 45" energy=-3460.77003127 config_name=prim_c_0034 virial="0.330650496623 -1.03726313246 0.887633828563 -1.03726313246 0.0335168782159 -1.11366616033 0.887633828563 -1.11366616033 0.177361488759"
Fe      0.00000000       0.00000000       0.00000000       0.00000000       0.00000000       0.00000000       26
1
Lattice="2.68495308 0.0 0.0 0.414782292 2.895005014 0.0 1.539243326 1.569360445 1.503793891" Properties=species:S:1:pos:R:3:force:R:3:Z:I:1 config_type=slice_sample_high degauss=0.136056917253 ecutwfc=1224.51225528 pbc="T T T" kpoints="34 34 45" energy=-3460.80734909 config_name=prim_c_0035 virial="0.354132702686 -0.929811648412 0.488661703146 -0.929811648412 -0.104875739329 -0.832684607792 0.488661703146 -0.832684607792 -0.00656814904519"
Fe      0.00000000       0.00000000       0.00000000       0.00000000       0.00000000       0.00000000       26
1
Lattice="2.68495308 0.0 0.0 0.414782292 2.895005014 0.0 1.539243326 1.573616096 1.503793891" Properties=species:S:1:pos:R:3:force:R:3:Z:I:1 config_type=slice_sample_high degauss=0.136056917253 ecutwfc=1224.51225528 pbc="T T T" kpoints="34 34 45" energy=-3460.80495082 config_name=prim_c_0036 virial="0.360990623013 -0.933793320464 0.50236681153 -0.933793320464 -0.103104914832 -0.862252010766 0.50236681153 -0.862252010766 0.00494757632325"
Fe      0.00000000       0.00000000       0.00000000       0.00000000       0.00000000       0.00000000       26
1
Lattice="2.68495308 0.0 0.0 0.414782292 2.895005014 0.0 1.539243326 1.573616096 1.624909439" Properties=species:S:1:pos:R:3:force:R:3:Z:I:1 config_type=slice_sample_high degauss=0.136056917253 ecutwfc=1224.51225528 pbc="T T T" kpoints="33 33 42" energy=-3460.77131905 config_name=prim_c_0037 virial="-0.369805463311 -0.517187244903 0.335003926875 -0.517187244903 -0.918257267438 -0.692377785034 0.335003926875 -0.692377785034 -0.802638700872"
Fe      0.00000000       0.00000000       0.00000000       0.00000000       0.00000000       0.00000000       26
1
Lattice="2.579175847 0.0 0.0 0.414780481 2.895003667 0.0 1.539244408 1.573614505 1.624909155" Properties=species:S:1:pos:R:3:force:R:3:Z:I:1 config_type=slice_sample_high degauss=0.136056917253 ecutwfc=1224.51225528 pbc="T T T" kpoints="34 33 42" energy=-3460.77649084 config_name=prim_c_0038 virial="0.310899964535 -0.404095317407 0.0967266613659 -0.404095317407 -0.69086653053 -0.614737312083 0.0967266613659 -0.614737312083 -0.465052163082"
Fe      0.00000000       0.00000000       0.00000000       0.00000000       0.00000000       0.00000000       26
1
Lattice="2.579175847 0.0 0.0 0.099308587 2.895003667 0.0 1.539244408 1.573614505 1.624909155" Properties=species:S:1:pos:R:3:force:R:3:Z:I:1 config_type=slice_sample_high degauss=0.136056917253 ecutwfc=1224.51225528 pbc="T T T" kpoints="36 33 42" energy=-3460.77076706 config_name=prim_c_0039 virial="0.270295486742 0.0517442522221 -0.541548994085 0.0517442522221 -0.632616650041 -0.545793248143 -0.541548994085 -0.545793248143 -0.637284215527"
Fe      0.00000000       0.00000000       0.00000000       0.00000000       0.00000000       0.00000000       26
1
Lattice="2.579175847 0.0 0.0 0.099308587 2.750399594 0.0 1.539244408 1.573614505 1.624909155" Properties=species:S:1:pos:R:3:force:R:3:Z:I:1 config_type=slice_sample_high degauss=0.136056917253 ecutwfc=1224.51225528 pbc="T T T" kpoints="36 34 42" energy=-3460.7477431 config_name=prim_c_0040 virial="0.81680162654 0.215265296896 -0.764742138072 0.215265296896 0.090995625502 -0.975054428137 -0.764742138072 -0.975054428137 0.219710303026"
Fe      0.00000000       0.00000000       0.00000000       0.00000000       0.00000000       0.00000000       26
1
Lattice="2.579175847 0.0 0.0 0.099308587 2.750399594 0.0 1.31967401 1.573614505 1.624909155" Properties=species:S:1:pos:R:3:force:R:3:Z:I:1 config_type=slice_sample_high degauss=0.136056917253 ecutwfc=1224.51225528 pbc="T T T" kpoints="33 34 42" energy=-3460.77633737 config_name=prim_c_0041 virial="1.02750550048 -0.135223436501 0.227076313186 -0.135223436501 -0.0117686828981 -0.929704782257 0.227076313186 -0.929704782257 -0.0864342025441"
Fe      0.00000000       0.00000000       0.00000000       0.00000000       0.00000000       0.00000000       26
1
Lattice="2.579175847 0.0 0.0 0.099308587 2.750399594 0.0 1.31967401 1.435177242 1.624909155" Properties=species:S:1:pos:R:3:force:R:3:Z:I:1 config_type=slice_sample_high degauss=0.136056917253 ecutwfc=1224.51225528 pbc="T T T" kpoints="33 33 42" energy=-3460.8263372 config_name=prim_c_0042 virial="0.931419284622 -0.0461328136268 0.100594722074 -0.0461328136268 0.0459846467558 -0.259334357676 0.100594722074 -0.259334357676 -0.502052859102"
Fe      0.00000000       0.00000000       0.00000000       0.00000000       0.00000000       0.00000000       26
1
Lattice="2.579175847 0.0 0.0 0.099308587 2.750399594 0.0 1.31967401 1.435177242 1.478004457" Properties=species:S:1:pos:R:3:force:R:3:Z:I:1 config_type=slice_sample_high degauss=0.136056917253 ecutwfc=1224.51225528 pbc="T T T" kpoints="35 34 46" energy=-3460.81470025 config_name=prim_c_0043 virial="2.21938667805 -0.303466706162 0.205141337023 -0.303466706162 1.26325091939 -0.487833993195 0.205141337023 -0.487833993195 0.861420337971"
Fe      0.00000000       0.00000000       0.00000000       0.00000000       0.00000000       0.00000000       26
1
Lattice="2.951792275 0.0 0.0 0.099310099 2.750400343 0.0 1.319675483 1.435179115 1.478003717" Properties=species:S:1:pos:R:3:force:R:3:Z:I:1 config_type=slice_sample_high degauss=0.136056917253 ecutwfc=1224.51225528 pbc="T T T" kpoints="30 34 46" energy=-3460.81610123 config_name=prim_c_0044 virial="-0.641525322003 -0.350757211641 1.14100482532 -0.350757211641 0.162989672049 -0.481675575366 1.14100482532 -0.481675575366 -0.329295546023"
Fe      0.00000000       0.00000000       0.00000000       0.00000000       0.00000000       0.00000000       26
1
Lattice="2.951792275 0.0 0.0 -0.038597636 2.750400343 0.0 1.319675483 1.435179115 1.478003717" Properties=species:S:1:pos:R:3:force:R:3:Z:I:1 config_type=slice_sample_high degauss=0.136056917253 ecutwfc=1224.51225528 pbc="T T T" kpoints="31 34 46" energy=-3460.87013229 config_name=prim_c_0045 virial="-0.709182451654 -0.057565299206 0.661058963246 -0.057565299206 -0.0346603696272 -0.199919601798 0.661058963246 -0.199919601798 -0.615094862138"
Fe      0.00000000       0.00000000       0.00000000       0.00000000       0.00000000       0.00000000       26
1
Lattice="2.951792275 0.0 0.0 -0.038597636 2.839184351 0.0 1.319675483 1.435179115 1.478003717" Properties=species:S:1:pos:R:3:force:R:3:Z:I:1 config_type=slice_sample_high degauss=0.136056917253 ecutwfc=1224.51225528 pbc="T T T" kpoints="31 33 46" energy=-3460.86279419 config_name=prim_c_0046 virial="-0.974750600895 0.0269424578046 0.561026358591 0.0269424578046 -0.617458809257 -0.00689199216108 0.561026358591 -0.00689199216108 -0.897141765074"
Fe      0.00000000       0.00000000       0.00000000       0.00000000       0.00000000       0.00000000       26
1
Lattice="2.951792275 0.0 0.0 -0.038597636 2.839184351 0.0 1.557253436 1.435179115 1.478003717" Properties=species:S:1:pos:R:3:force:R:3:Z:I:1 config_type=slice_sample_high degauss=0.136056917253 ecutwfc=1224.51225528 pbc="T T T" kpoints="34 33 46" energy=-3460.87339384 config_name=prim_c_0047 virial="-0.984747401405 0.082544684992 -0.382994600688 0.082544684992 -0.685434778146 -0.0903010194043 -0.382994600688 -0.0903010194043 -0.948581501946"
Fe      0.00000000       0.00000000       0.00000000       0.00000000       0.00000000       0.00000000       26
1
Lattice="2.951792275 0.0 0.0 -0.038597636 2.839184351 0.0 1.557253436 1.288891241 1.478003717" Properties=species:S:1:pos:R:3:force:R:3:Z:I:1 config_type=slice_sample_high degauss=0.136056917253 ecutwfc=1224.51225528 pbc="T T T" kpoints="34 32 46" energy=-3460.85568182 config_name=prim_c_0048 virial="-0.872530756763 -0.120689473289 -0.411972811952 -0.120689473289 -0.670547620161 0.497565440672 -0.411972811952 0.497565440672 -0.865866223089"
Fe      0.00000000       0.00000000       0.00000000       0.00000000       0.00000000       0.00000000       26
1
Lattice="2.951792275 0.0 0.0 -0.038597636 2.839184351 0.0 1.557253436 1.288891241 1.325827018" Properties=species:S:1:pos:R:3:force:R:3:Z:I:1 config_type=slice_sample_high degauss=0.136056917253 ecutwfc=1224.51225528 pbc="T T T" kpoints="36 33 51" energy=-3460.84988334 config_name=prim_c_0049 virial="0.320127209152 -0.191031645093 -0.557139074508 -0.191031645093 0.43336893201 0.656169471245 -0.557139074508 0.656169471245 1.1674915568"
Fe      0.00000000       0.00000000       0.00000000       0.00000000       0.00000000       0.00000000       26
1
Lattice="2.858396731 0.0 0.0 -0.038596931 2.839185446 0.0 1.557254539 1.288891103 1.325827306" Properties=species:S:1:pos:R:3:force:R:3:Z:I:1 config_type=slice_sample_high degauss=0.136056917253 ecutwfc=1224.51225528 pbc="T T T" kpoints="37 33 51" energy=-3460.80001005 config_name=prim_c_0050 virial="0.965787674808 -0.302994148797 -0.986691998866 -0.302994148797 1.03828102544 0.867213314955 -0.986691998866 0.867213314955 1.70250703112"
Fe      0.00000000       0.00000000       0.00000000       0.00000000       0.00000000       0.00000000       26
1
Lattice="2.858396731 0.0 0.0 -0.090631185 2.839185446 0.0 1.557254539 1.288891103 1.325827306" Properties=species:S:1:pos:R:3:force:R:3:Z:I:1 config_type=slice_sample_high degauss=0.136056917253 ecutwfc=1224.51225528 pbc="T T T" kpoints="37 33 51" energy=-3460.78561006 config_name=prim_c_0051 virial="0.990179345932 -0.165327912622 -1.11770955352 -0.165327912622 1.1459244635 0.802326925347 -1.11770955352 0.802326925347 1.73593814294"
Fe      0.00000000       0.00000000       0.00000000       0.00000000       0.00000000       0.00000000       26
1
Lattice="2.858396731 0.0 0.0 -0.090631185 2.855272503 0.0 1.557254539 1.288891103 1.325827306" Properties=species:S:1:pos:R:3:force:R:3:Z:I:1 config_type=slice_sample_high degauss=0.136056917253 ecutwfc=1224.51225528 pbc="T T T" kpoints="37 33 51" energy=-3460.78723308 config_name=prim_c_0052 virial="0.930684769104 -0.192533201038 -1.09338272567 -0.192533201038 1.0281783602 0.856161236363 -1.09338272567 0.856161236363 1.66434565102"
Fe      0.00000000       0.00000000       0.00000000       0.00000000       0.00000000       0.00000000       26
1
Lattice="2.858396731 0.0 0.0 -0.090631185 2.855272503 0.0 1.495790434 1.288891103 1.325827306" Properties=species:S:1:pos:R:3:force:R:3:Z:I:1 config_type=slice_sample_high degauss=0.136056917253 ecutwfc=1224.51225528 pbc="T T T" kpoints="36 33 51" energy=-3460.82668877 config_name=prim_c_0053 virial="0.896915206674 -0.0309976565994 -0.616227452108 -0.0309976565994 0.815705320442 0.80483627034 -0.616227452108 0.80483627034 1.56132811856"
Fe      0.00000000       0.00000000       0.00000000       0.00000000       0.00000000       0.00000000       26
1