129
Lattice="11.3344 0.0 0.0 0.0 11.3344 0.0 0.0 0.0 11.3344" Properties=species:S:1:pos:R:3:force:R:3:Z:I:1 config_type=self_interstitial_100_high config_name=self_interstitial_100_high_0000 ecutwfc=1224.51225528 pbc="T T T" kpoints="3 3 3" degauss=0.136056917253 energy=-446454.302244
Fe      0.77902555       1.38169200       2.23608581      -0.01593955       0.21948993      -0.35199533       26 
Fe      0.02154741      -0.00526224      -0.02065657      -0.10761172      -0.03978345       0.58214480       26 
Fe      2.08106209       1.45927543       0.77684173      -0.15918419       0.00182111      -0.06957559       26 
Fe     -0.15522916      -0.30790175       2.97611436       0.02230638      -0.30872469       0.05962825       26 
Fe      1.38631623       1.40219370       4.44671240       0.09208226       0.13206111      -0.41342618       26 
Fe     -0.05420012      -0.01963760       5.73834767       0.53200520      -0.39207728      -0.21909270       26 
Fe      1.40902365       1.46018897       7.12957545      -0.07202406      -0.23380378      -0.19337601       26 
Fe     -0.01131815      -0.05653443       8.50330236      -0.01098555       0.34195620      -0.16323317       26 
Fe      1.40416913       1.39373743       9.88083864       0.18567350       0.29990298      -0.63741117       26 
Fe      0.04157517       2.77848495       0.05329379      -0.27282001       0.18806514      -0.13060690       26 
Fe      1.41021801       4.28824392       1.35553410       0.26282973      -0.32152416       0.51297287       26 
Fe     -0.12142586       3.10578440       2.99691387      -0.03586972       0.00951951      -0.12395468       26 
Fe      1.39989293       4.32779825       4.28429844       0.30164259      -0.40052876       0.02058837       26 
Fe     -0.03620513       2.86606510       5.72440165       0.19492253       0.42180104       0.10771636       26 
Fe      1.46619666       4.30017864       7.15264529      -0.32275289      -0.26003700      -0.67789808       26 
Fe     -0.02373784       2.86954424       8.54259617       0.10486373      -0.22213457      -0.41323412       26 
Fe      1.39938201       4.29388499       9.87170260       0.27452208       0.08187009       0.05582430       26 
Fe      0.02253199       5.61521178      -0.05003388      -0.26020335       0.54536671       0.37175374       26 
Fe      1.43366784       7.05378334       1.48538660      -0.07520939       0.29791089      -0.80054741       26 
Fe     -0.01972203       5.65792761       2.80481631       0.00031727       0.26390471       0.22342629       26 
Fe      1.40005903       7.05255306       4.27568136       0.60296559       0.20889056      -0.25760216       26 
Fe      0.02463208       5.68538089       5.71053822      -0.21272253      -0.28104420      -0.15888697       26 
Fe      1.44150292       7.05024068       7.07965712       0.08820298       0.18213206      -0.16542477       26 
Fe     -0.00980677       5.69645677       8.49833748      -0.07768588      -0.27138019       0.13746454       26 
Fe      1.44692601       7.05440897       9.85289478      -0.10962335       0.24066245       0.59962650       26 
Fe      0.03136357       8.44623091      -0.00142022      -0.14231493       0.06472032       0.31960046       26 
Fe      1.41903620       9.92501277       1.44451400      -0.12226392      -0.09238308      -0.23807489       26 
Fe     -0.00710614       8.42312676       2.84826550       0.19091341       0.33996874      -0.12112853       26 
Fe      1.46214901       9.86341094       4.24211705      -0.23573750       0.01916140       0.49894056       26 
Fe      0.05823309       8.46792538       5.71464397      -0.44252876      -0.06442824      -0.16282462       26 
Fe      1.44326589       9.86566836       7.07821390      -0.34771110       0.28163555       0.06919147       26 
Fe     -0.02995289       8.44629230       8.46980310       0.08607976       0.09969967       0.10595902       26 
Fe      1.34049417       9.83837042       9.89646459       0.55831941       0.15583250      -0.40794408       26 
Fe      2.86754358      -0.20199482      -0.23532430       0.18987057      -0.28968490       0.42421993       26 
Fe      4.28882869       1.44128952       1.33831427       0.06712302      -0.04883373       0.45260979       26 
Fe      2.83015099       0.05608792       2.87886348      -0.22898810      -0.24844184      -0.46211259       26 
Fe      4.20513120       1.46895346       4.22799671       0.30014826      -0.41692417       0.33644350       26 
Fe      2.83899136      -0.05262288       5.69504481      -0.05681829       0.38309076      -0.05061551       26 
Fe      4.21911169       1.40636256       7.07682935       0.18988548       0.23784889      -0.22369548       26 
Fe      2.81682451      -0.00021026       8.42467831      -0.04468886      -0.31660307       0.42990850       26 
Fe      4.21499408       1.41346902       9.88693526       0.09887846       0.23419536      -0.18322658       26 
Fe      2.97971134       3.13477030      -0.18534439      -0.30763789      -0.23057087       0.22538624       26 
Fe      4.27710025       4.29247117       1.40138921      -0.10650846      -0.20545325       0.10326424       26 
Fe      2.79619306       2.83766978       2.80326682      -0.16064535       0.10473697       0.03345288       26 
Fe      4.22044299       4.21622904       4.20326925       0.43292312       0.24382799       0.21455778       26 
Fe      2.83397347       2.87085764       5.66071031      -0.10927882       0.01636070       0.41445617       26 
Fe      4.25030105       4.29343551       7.09040534       0.31787088      -0.29478777      -0.46134666       26 
Fe      2.87837155       2.87100808       8.48929646      -0.35658501       0.04940786       0.00822316       26 
Fe      4.31074837       4.40886986       9.82459471       0.39152913      -0.38127505       0.23673406       26 
Fe      2.89492991       5.75464425       0.03480588      -0.30114020      -0.17842196      -0.60631162       26 
Fe      4.29540113       7.11031249       1.44127249      -0.14809657      -0.02338084      -0.27817407       26 
Fe      2.85658090       5.67273552       2.80963051      -0.16329153      -0.02325100       0.24731467       26 
Fe      4.28937417       7.11890149       4.21695661      -0.07030810      -0.27229396       0.19044778       26 
Fe      2.93194339       5.66670866       5.59594789      -0.73736846       0.11690986       0.48303520       26 
Fe      4.26227399       7.05910198       7.04849388       0.31004907       0.53291794      -0.15502852       26 
Fe      2.90590825       5.74648595       8.44685189      -0.49511887      -0.45059842       0.42122768       26 
Fe      4.29412734       7.12042627       9.89563145       0.06400736      -0.08249230       0.32978151       26 
Fe      2.83190570       8.49764754      -0.01529761      -0.03640373      -0.33302676      -0.03068971       26 
Fe      4.18357238       9.96850490       1.33569637       0.67485055      -0.29556399       0.77859919       26 
Fe      2.87436142       8.50286295       2.80810789      -0.23406192       0.08300729       0.24854365       26 
Fe      4.25099405       9.96031420       4.25232187       0.08123246      -0.33448149      -0.36369102       26 
Fe      2.86896324       8.46702371       5.67382582      -0.13455277       0.06084978      -0.32305551       26 
Fe      4.26946657       9.85493701       7.07482359      -0.24849069       0.58160127      -0.18056652       26 
Fe      2.82302476       8.48914122       8.45617823       0.13803378      -0.11225668       0.23743058       26 
Fe      4.27220631       9.86741578       9.82494246       0.19215165      -0.04409056       0.10814805       26 
Fe      5.61933101       0.05244023      -0.04754663       0.57184470      -0.61447770      -0.06265136       26 
Fe      7.11972122       1.38212527       1.40162272      -0.47906130       0.15358562       0.18955252       26 
Fe      5.64599146       0.04299801       2.81615870       0.00238598      -0.36215864       0.01013143       26 
Fe      7.08082310       1.44289505       4.25801524      -0.22781079      -0.29932166       0.04227793       26 
Fe      5.66035653       0.00175572       5.64817756      -0.16112486       0.22655995       0.11588116       26 
Fe      7.08386401       1.42410920       7.10111917      -0.10969303      -0.03159629      -0.16669644       26 
Fe      5.61722315       0.01609744       8.44338025       0.45296666      -0.01638744       0.48204790       26 
Fe      7.12569786       1.42073594       9.89699282      -0.47434564      -0.15829639       0.01509829       26 
Fe      5.62880626       2.82332027      -0.03029652       0.71142295       0.37392478      -0.18498958       26 
Fe      7.07455405       4.20033890       1.45683159       0.24015440       0.10239213      -0.32711837       26 
Fe      5.63377878       2.80488712       2.80292988       0.32987202       0.22170211       0.21392632       26 
Fe      7.06487948       4.24182490       4.28785608      -0.16678360       0.01101024      -0.40453068       26 
Fe      5.65314188       2.81933956       5.69187203      -0.07317874       0.21100555      -0.21183139       26 
Fe      7.07663488       4.24551025       7.06565577       0.13903240       0.11177228       0.12216545       26 
Fe      5.65920442       2.86657033       8.47270546       0.03316054      -0.27650903       0.23070714       26 
Fe      7.10221300       4.21431731       9.90282852      -0.09985316       0.41281657       0.26703580       26 
Fe      5.73998947       5.65704821       0.07182281      -0.15450916       0.38248424      -0.78244119       26 
Fe      7.12160306       7.08813245       1.48059668      -0.34164175      -0.04915049      -0.76369270       26 
Fe      5.63854216       5.63493389       2.81134101       0.45026803       0.18541407       0.51124997       26 
Fe      7.09568285       7.12950077       4.19355169      -0.15597417      -0.47446468       0.57727719       26 
Fe      5.68122852       5.67259617       5.65675191      -0.02010963       0.07606866      -0.31982620       26 
Fe      7.12516544       7.13497952       7.01771044      -0.55147077      -0.29523437       0.60162348       26 
Fe      5.71769413       5.73482662       8.43139989       0.23188342      -0.20653491       0.43442952       26 
Fe      7.13699585       7.11449593       9.94295611      -0.58394097      -0.22004657      -0.04866353       26 
Fe      5.68124545       8.51684323       0.05953618      -0.04025602      -0.10052910      -0.69965604       26 
Fe      7.02785096       9.92007960       1.41287621       0.47330795       0.28806639       0.07757712       26 
Fe      5.71177688       8.46107813       2.83466050      -0.61874805       0.89292740      -0.12573543       26 
Fe      7.05711413       9.90512405       4.23958559       0.13911853       0.25255020      -0.07790700       26 
Fe      5.66446665       8.55578808       5.65377931       0.03792814      -0.61475976      -0.11390578       26 
Fe      7.04258272       9.93438697       7.10130373       0.24194826      -0.17883873      -0.20810277       26 
Fe      5.65383182       8.48168562       8.46567000       0.54090610       0.07381586       0.20878643       26 
Fe      7.07793606       9.95206929       9.92751421      -0.05143543      -0.23514589      -0.10449426       26 
Fe      8.52554854       0.00768744      -0.00067169      -0.20469272      -0.41781634      -0.07607226       26 
Fe      9.90373700       1.34252859       1.51552336      -0.23901695       0.35148677      -0.41814801       26 
Fe      8.48659685      -0.01220212       2.88682612      -0.07766763      -0.42020001      -0.05239600       26 
Fe      9.94812123       1.40911958       4.30069857      -0.18375623      -0.09865837      -0.26662648       26 
Fe      8.42598387      -0.00795678       5.68752860       0.60032970      -0.05587110      -0.16330362       26 
Fe      9.92810024       1.39993841       7.07235822      -0.23661373       0.20925643       0.46170430       26 
Fe      8.52605079      -0.04898350       8.44563517      -0.22722561       0.42637477       0.63678640       26 
Fe      9.92190488       1.42332468       9.92774284       0.09001406      -0.29385986      -0.07369270       26 
Fe      8.53125053       2.76741438       0.07169346      -0.21748267       0.52463822      -0.51440549       26 
Fe      9.89641860       4.24832468       1.40394922      -0.12468847       0.05779069       0.11164964       26 
Fe      8.48668643       2.78627139       2.88163327       0.06138869       0.54403488      -0.14659119       26 
Fe      9.79991640       4.34077010       4.29658078       0.39852741      -0.12905935       0.18236834       26 
Fe      8.51820508       2.83118901       5.67439479      -0.26052499       0.05479998       0.24646003       26 
Fe      9.89120974       4.31758340       7.10897495       0.03307956      -0.60904496      -0.09731034       26 
Fe      8.48461823       2.82054537       8.50940753       0.26415333       0.06448018      -0.25208252       26 
Fe      9.87788985       4.21930614       9.91236024       0.24579437       0.18878376       0.29162583       26 
Fe      8.52120187       5.67819948       0.00999150      -0.28341707      -0.43241455      -0.00585157       26 
Fe      9.90370445       7.06507660       1.40982869       0.37251119      -0.16971286       0.03446872       26 
Fe      8.43666786       5.70369636       2.82563114       0.61905967      -0.50856883       0.22499749       26 
Fe      9.98614447       7.07163150       4.26839473      -0.78654750      -0.04352260      -0.00415927       26 
Fe      8.45834434       5.70756443       5.66499306       0.08901545      -0.13094525      -0.02586067       26 
Fe      9.89128410       7.02113155       7.08343610       0.10806732       0.85026277      -0.01005276       26 
Fe      8.49494019       5.67926927       8.50202685      -0.16874304      -0.01685949       0.14303869       26 
Fe      9.90438377       7.08974959       9.94957032       0.15235483      -0.22689394      -0.38339390       26 
Fe      8.51711738       8.47063990       0.04284723      -0.29357987       0.41154876      -0.44029755       26 
Fe      9.85469569       9.86676303       1.39784932       0.58275081       0.15752198       0.03678657       26 
Fe      8.54112813       8.50397271       2.80247281      -0.33433159      -0.03097691       0.53634805       26 
Fe      9.89814209       9.78941825       4.36056843      -0.40031664       0.46408746      -0.17612159       26 
Fe      8.45101494       8.48640392       5.65243284       0.42292050       0.08328626       0.27580120       26 
Fe      9.90027179       9.88945529       7.08609818      -0.06178104      -0.26660411       0.00164756       26 
Fe      8.47469777       8.51818921       8.52046863       0.24127489      -0.15128936      -0.18565216       26 
Fe      9.95027740       9.87079735       9.92305332      -0.45014745       0.20045605       0.04693960       26 
129
Lattice="11.3344 0.0 0.0 0.0 11.3344 0.0 0.0 0.0 11.3344" Properties=species:S:1:pos:R:3:force:R:3:Z:I:1 config_type=self_interstitial_100_high config_name=self_interstitial_100_high_0001 ecutwfc=1224.51225528 pbc="T T T" kpoints="3 3 3" degauss=0.136056917253 energy=-446454.321154
Fe      0.83057021       1.44414166       2.20686589      -0.69429272       0.36875198      -0.16749786       26 
Fe      0.01568370      -0.03367672       0.01086569       0.00118348       0.37608297      -0.31384299       26 
Fe      1.96851726       1.39511959       0.64306038       0.34381691       0.11484423       0.31675451       26 
Fe     -0.14176000      -0.22983588       2.96667293       0.01299641      -0.35708509       0.21074509       26 
Fe      1.38450320       1.40726252       4.42035907      -0.00899706       0.14060386      -0.37052116       26 
Fe      0.01059102      -0.09412108       5.69894865      -0.63070162       0.51144923       0.05661800       26 
Fe      1.41896003       1.41116899       7.03745907      -0.13046394      -0.01933392       0.30669455       26 
Fe     -0.02575430      -0.01273651       8.47257837       0.06732974      -0.35584736       0.11460075       26 
Fe      1.43226428       1.40081238       9.74009467      -0.23504099      -0.02204155       0.46028119       26 
Fe     -0.00017241       2.82148803      -0.06601398       0.29226295      -0.02639829       0.38179621       26 
Fe      1.43983439       4.18760226       1.45121751      -0.17449177       0.51168603      -0.32028540       26 
Fe     -0.16631421       3.13583939       3.00303466       0.43839494      -0.56512641      -0.26986427       26 
Fe      1.45924898       4.27662369       4.29566398      -0.26582609       0.36398850       0.05554380       26 
Fe     -0.05342379       2.86934641       5.70675137       0.05256877      -0.34872489      -0.26048231       26 
Fe      1.37684230       4.27671641       7.00947391       0.30050436       0.07634094       0.78055605       26 
Fe      0.02011587       2.82654786       8.42646625      -0.33747425       0.15594897       0.45071001       26 
Fe      1.44260138       4.29392639       9.88889134      -0.54933469      -0.20249648       0.04516374       26 
Fe      0.00717959       5.64588912       0.05215452       0.14373443      -0.20401755      -0.39211842       26 
Fe      1.43959190       7.09892226       1.37544045       0.09788575      -0.27045177       0.59645401       26 
Fe      0.06063793       5.68604861       2.86371703      -0.30880234       0.17907990      -0.09832387       26 
Fe      1.49002428       7.08625448       4.27502840      -0.72435714      -0.05628453       0.10415642       26 
Fe     -0.02950754       5.65244479       5.67008419       0.19745969       0.46220284       0.12464579       26 
Fe      1.42483711       7.08224550       7.11561663      -0.10131406      -0.10791228      -0.09142843       26 
Fe     -0.00637363       5.64657658       8.49878069       0.05837381       0.19944150      -0.02037316       26 
Fe      1.43796164       7.04748804      10.00565083      -0.15011206       0.03836034      -0.80569116       26 
Fe     -0.01023349       8.47004761       0.02135152       0.05431532       0.22078808      -0.35518710       26 
Fe      1.40909630       9.91331397       1.40713758       0.14142173      -0.06237985       0.11797172       26 
Fe      0.01754691       8.45984592       2.82733695      -0.22723924      -0.08697733       0.28141032       26 
Fe      1.40180444       9.88395661       4.33441446       0.14786491      -0.08952941      -0.53286626       26 
Fe     -0.03465732       8.43468392       5.66947121       0.30810351       0.18991119       0.12829085       26 
Fe      1.37694614       9.86381230       7.11310350       0.36813620      -0.07103598      -0.16513681       26 
Fe     -0.02087670       8.45645902       8.54609940       0.07829986       0.02730152      -0.22459974       26 
Fe      1.43192054       9.84068104       9.83641216      -0.33627638       0.17310697       0.64066285       26 
Fe      2.94269394      -0.25738567      -0.13162415       0.33779436      -0.39461342      -0.21392118       26 
Fe      4.21951047       1.46551539       1.45202666       0.47870572      -0.20913018      -0.54694125       26 
Fe      2.78764899       0.02040577       2.83521106       0.09073937       0.05199310       0.20427157       26 
Fe      4.24092160       1.45274918       4.28265694      -0.15337350       0.01217674      -0.40520405       26 
Fe      2.83402756      -0.00769070       5.68898261       0.12933343      -0.14663644      -0.06705154       26 
Fe      4.21229225       1.51446587       7.03992258       0.10057487      -0.69332547       0.43078370       26 
Fe      2.82585888      -0.04849222       8.46081377       0.27912487       0.20817939      -0.20281658       26 
Fe      4.21094328       1.45514498       9.85391542      -0.00464958      -0.31419163       0.50903677       26 
Fe      2.94194122       3.05471167      -0.13695260       0.18781188       0.24819784       0.07387165       26 
Fe      4.28316843       4.25181491       1.42529144       0.11266368       0.35196705       0.01813939       26 
Fe      2.78936442       2.86978857       2.90982700       0.37980387      -0.40752473      -0.35398922       26 
Fe      4.32104776       4.30604833       4.21047838      -0.55005589      -0.29363206       0.18655024       26 
Fe      2.84049795       2.91801695       5.67733250       0.09078925      -0.31204167      -0.13619956       26 
Fe      4.28810869       4.27921153       7.04086985      -0.21882736       0.16521163       0.47531803       26 
Fe      2.77114043       2.90773124       8.46287424       0.71004895      -0.22810390      -0.26971360       26 
Fe      4.34174260       4.26580150       9.88278230      -0.24033258       0.28431258      -0.27726185       26 
Fe      2.88118786       5.64956117      -0.00030781      -0.05729240       0.24263603       0.22848982       26 
Fe      4.27574515       7.10412321       1.39206697      -0.04412681      -0.13104321       0.22746472       26 
Fe      2.83942408       5.70260752       2.84996005       0.23360812      -0.26550111      -0.34520376       26 
Fe      4.26979216       7.05670399       4.25693273      -0.02107225       0.34784994      -0.18692074       26 
Fe      2.85230238       5.70178787       5.72253138       0.22759045      -0.05684401      -0.40458004       26 
Fe      4.33219056       7.11813367       7.08569780      -0.55853847      -0.34997856       0.29041304       26 
Fe      2.82780699       5.63036651       8.51228460       0.42816015       0.54973553      -0.23383077       26 
Fe      4.30942734       7.07677973       9.94360020      -0.34902288      -0.05061885      -0.41161664       26 
Fe      2.87679675       8.47439063      -0.00195227      -0.09171922       0.12845386       0.01020728       26 
Fe      4.29631596       9.91125953       1.45851327      -0.55321166       0.11827100      -0.65155687       26 
Fe      2.79217876       8.52024321       2.86932272       0.47336477      -0.10444541      -0.40858094       26 
Fe      4.26400364       9.91563267       4.20015081      -0.30475645       0.28141726       0.65987259       26 
Fe      2.86053391       8.51694776       5.66994765       0.03435559      -0.22215874       0.25084633       26 
Fe      4.25203863       9.93979575       7.05787594       0.24651043      -0.35555502       0.15193240       26 
Fe      2.86414716       8.41912393       8.53226335       0.01338696       0.37462798      -0.45132733       26 
Fe      4.31705517       9.86264980       9.81561952      -0.11386310       0.15536225       0.28122160       26 
Fe      5.66046080      -0.00879547      -0.03425764      -0.17214847       0.25278597       0.18522998       26 
Fe      7.07263672       1.44191706       1.40949375       0.26283076      -0.18365878      -0.08821969       26 
Fe      5.64195664       0.03375478       2.81515656       0.12266013       0.04369153       0.18170474       26 
Fe      7.02586364       1.39695255       4.24780859       0.56685625       0.30908902       0.04561805       26 
Fe      5.62600592       0.05076038       5.67537394       0.27522245      -0.45156541      -0.12531814       26 
Fe      7.07564595       1.40372973       7.07603396      -0.02054131       0.09300734       0.04122712       26 
Fe      5.67476757       0.03936320       8.49468956      -0.24276279      -0.28043767      -0.36096899       26 
Fe      7.02568399       1.41370895       9.89430969       0.54444523       0.16744875       0.26337892       26 
Fe      5.71028248       2.84301328       0.00229352      -0.46123507      -0.03241595      -0.15285902       26 
Fe      7.13801563       4.27248041       1.38572690      -0.44466714      -0.00025480       0.12691222       26 
Fe      5.72106555       2.86992113       2.80185034      -0.58068930      -0.20789811       0.20055144       26 
Fe      7.07452726       4.24776898       4.20331521       0.22455835       0.15414175       0.53772899       26 
Fe      5.67506154       2.87897678       5.65959643       0.08248330      -0.19079565      -0.07173609       26 
Fe      7.07806216       4.25542913       7.13936511      -0.03946515      -0.09184829      -0.41365270       26 
Fe      5.64419962       2.82592406       8.47441501       0.24279364       0.17380220      -0.00683399       26 
Fe      7.09915907       4.21708726       9.91081776      -0.07897735       0.15631947      -0.26092351       26 
Fe      5.70769039       5.67980425      -0.05357765      -0.11487792      -0.19827653       0.65843097       26 
Fe      7.07543347       7.11824637       1.35417461       0.26797322      -0.09143743       0.46012359       26 
Fe      5.72805547       5.69811513       2.78772377      -0.39760516      -0.03859329      -0.06412922       26 
Fe      7.05738591       7.04030721       4.25176584       0.31054658       0.44876934      -0.19370794       26 
Fe      5.69625393       5.64545091       5.64104732      -0.05993807       0.22216414       0.35332279       26 
Fe      7.03452257       7.07145781       7.14387663       0.66920004       0.01024147      -0.50264423       26 
Fe      5.69178622       5.66801494       8.54260444      -0.10025657       0.02677238      -0.53986146       26 
Fe      7.09256419       7.07731337       9.91979597       0.33089197       0.11245157       0.03324976       26 
Fe      5.68458066       8.52360920      -0.06016534       0.07336386       0.05063402       0.62783793       26 
Fe      7.09050863       9.97972139       1.42768959      -0.06855281      -0.51298572      -0.13340811       26 
Fe      5.61037037       8.56732895       2.79196631       0.88593992      -0.81302831       0.38702275       26 
Fe      7.06652995       9.92922200       4.25684149      -0.11620409      -0.13228608       0.03988784       26 
Fe      5.67899793       8.44552082       5.63789570      -0.01373432       0.75512553       0.12493170       26 
Fe      7.08660094       9.93276746       7.03859292       0.02389043       0.03961633       0.38602362       26 
Fe      5.76995449       8.55243097       8.52719462      -0.66684259      -0.40009064      -0.62798114       26 
Fe      7.11881683       9.92251744       9.92529377      -0.20683059       0.19892830      -0.14776001       26 
Fe      8.49754095      -0.00228989       0.01102569       0.04007861       0.34481681       0.06820957       26 
Fe      9.90262278       1.47320577       1.39576118      -0.31650382      -0.36036787       0.34207550       26 
Fe      8.50350142      -0.01102791       2.86272130      -0.13359015       0.23176001      -0.22212068       26 
Fe      9.88372259       1.44410058       4.26964509       0.30849432      -0.18260360      -0.04468680       26 
Fe      8.53785990      -0.01646748       5.65756715      -0.60034769       0.15199462       0.22712225       26 
Fe      9.89648994       1.37374429       7.11011365       0.08090670       0.18331785      -0.38301697       26 
Fe      8.47913974       0.02015913       8.57552855       0.05628196      -0.29949829      -0.90427959       26 
Fe      9.92386866       1.40596535       9.90600380       0.05577288       0.07477102       0.08388430       26 
Fe      8.49378772       2.87255813      -0.06993137       0.15746413      -0.60662916       0.47812439       26 
Fe      9.89841078       4.26575846       1.42181846       0.08586430       0.11074101      -0.29789161       26 
Fe      8.47185814       2.88228467       2.83055012       0.17180163      -0.45404344       0.12397345       26 
Fe      9.84815277       4.30441748       4.34068680      -0.27101535       0.10693295       0.11554023       26 
Fe      8.43809251       2.83351070       5.70756547       0.26930325      -0.11654656      -0.33144810       26 
Fe      9.89869501       4.23142757       7.09758524      -0.12197082       0.33491858       0.07415653       26 
Fe      8.51876989       2.82024651       8.47565730      -0.29548248      -0.04686812       0.28268970       26 
Fe      9.93713189       4.24447122       9.90031903       0.04058023      -0.08476798      -0.04914072       26 
Fe      8.48214769       5.60873303      -0.01872651       0.40052439       0.71454247       0.01642138       26 
Fe      9.93517180       7.03821674       1.40419743      -0.40025314       0.39365183       0.16892379       26 
Fe      8.54359603       5.66616104       2.85556507      -0.53880191       0.21888315      -0.39037470       26 
Fe      9.88585228       7.04673835       4.26085059       0.27378289       0.20490946      -0.02353356       26 
Fe      8.46368014       5.64695132       5.70759639      -0.13202923       0.27887444       0.11221271       26 
Fe      9.89328933       7.10736033       7.08869130       0.11332677      -0.71210069       0.18866729       26 
Fe      8.48054264       5.65546077       8.52721968       0.28620543       0.02879764      -0.20467729       26 
Fe      9.93077358       7.03115259       9.91253281      -0.21410553       0.26844039       0.30063575       26 
Fe      8.48362477       8.54116181      -0.02317714       0.33048677      -0.55563364       0.32729603       26 
Fe      9.93430362       9.88449013       1.42000498      -0.53842216      -0.08625305      -0.03837346       26 
Fe      8.45868977       8.47640562       2.86163805       0.10764566      -0.01102566      -0.41542033       26 
Fe      9.83255087       9.83374296       4.30455011       0.33806612      -0.10524528      -0.00347922       26 
Fe      8.48785817       8.46177318       5.69874413      -0.48839441      -0.05197228      -0.16097445       26 
Fe      9.89432322       9.86270336       7.08945375       0.04776415       0.30890364       0.24014823       26 
Fe      8.52381409       8.48295048       8.50278275      -0.30066428       0.13072800       0.12883284       26 
Fe      9.87982970       9.93047386       9.92684629       0.56544883      -0.25213857       0.01078449       26 
129