1
Lattice="2.866788423 0.0 0.0 0.0 2.866788423 0.0 1.433394211 1.433394211 1.433394211" Properties=species:S:1:pos:R:3:force:R:3:Z:I:1 config_type=slice_sample_high degauss=0.136056917253 ecutwfc=1224.51225528 pbc="T T T" kpoints="33 33 47" energy=-3460.92558881 config_name=prim_x_0000 virial="-0.456616132454 -0.000205507544927 -0.000237956104652 -0.000205507544927 -0.456616132454 -0.000237956104652 -0.000237956104652 -0.000237956104652 -0.456140220245"
Fe      0.00000000       0.00000000       0.00000000       0.00000000       0.00000000       0.00000000       26 
1
Lattice="3.080949085 0.0 0.0 0.0 2.866789233 0.0 1.433393076 1.433393076 1.433393076" Properties=species:S:1:pos:R:3:force:R:3:Z:I:1 config_type=slice_sample_high degauss=0.136056917253 ecutwfc=1224.51225528 pbc="T T T" kpoints="31 33 47" energy=-3460.84665825 config_name=prim_x_0001 virial="-1.23646545547 0.000325477416124 0.374066544674 0.000325477416124 -0.855180286671 0.00023248386866 0.374066544674 0.00023248386866 -0.884473254123"
Fe      0.00000000       0.00000000       0.00000000       0.00000000       0.00000000       0.00000000       26 
1
Lattice="3.080949085 0.0 0.0 -0.074448054 2.866789233 0.0 1.433393076 1.433393076 1.433393076" Properties=species:S:1:pos:R:3:force:R:3:Z:I:1 config_type=slice_sample_high degauss=0.136056917253 ecutwfc=1224.51225528 pbc="T T T" kpoints="32 33 47" energy=-3460.85282285 config_name=prim_x_0002 virial="-1.23793010384 0.114056585964 0.221382763931 0.114056585964 -0.892924042748 0.0494609430574 0.221382763931 0.0494609430574 -0.902328015236"
Fe      0.00000000       0.00000000       0.00000000       0.00000000       0.00000000       0.00000000       26 
1
Lattice="3.080949085 0.0 0.0 -0.074448054 2.791777366 0.0 1.433393076 1.433393076 1.433393076" Properties=species:S:1:pos:R:3:force:R:3:Z:I:1 config_type=slice_sample_high degauss=0.136056917253 ecutwfc=1224.51225528 pbc="T T T" kpoints="32 34 47" energy=-3460.87179626 config_name=prim_x_0003 virial="-1.09566637905 0.0724369166189 0.235694489908 0.0724369166189 -0.508824342101 -0.0493214011109 0.235694489908 -0.0493214011109 -0.746058357038"
Fe      0.00000000       0.00000000       0.00000000       0.00000000       0.00000000       0.00000000       26 
1
Lattice="3.080949085 0.0 0.0 -0.074448054 2.791777366 0.0 1.552585753 1.433393076 1.433393076" Properties=species:S:1:pos:R:3:force:R:3:Z:I:1 config_type=slice_sample_high degauss=0.136056917253 ecutwfc=1224.51225528 pbc="T T T" kpoints="33 34 47" energy=-3460.87248335 config_name=prim_x_0004 virial="-1.07739583937 0.148201924109 -0.20407762663 0.148201924109 -0.517325689871 -0.125788250894 -0.20407762663 -0.125788250894 -0.724821967668"
Fe      0.00000000       0.00000000       0.00000000       0.00000000       0.00000000       0.00000000       26 
1
Lattice="3.080949085 0.0 0.0 -0.074448054 2.791777366 0.0 1.552585753 1.457399831 1.433393076" Properties=species:S:1:pos:R:3:force:R:3:Z:I:1 config_type=slice_sample_high degauss=0.136056917253 ecutwfc=1224.51225528 pbc="T T T" kpoints="33 35 47" energy=-3460.86987664 config_name=prim_x_0005 virial="-1.03543246229 0.175200212301 -0.236452932386 0.175200212301 -0.498251427564 -0.18733529194 -0.236452932386 -0.18733529194 -0.695537032008"
Fe      0.00000000       0.00000000       0.00000000       0.00000000       0.00000000       0.00000000       26 
1
Lattice="3.080949085 0.0 0.0 -0.074448054 2.791777366 0.0 1.552585753 1.457399831 1.468965714" Properties=species:S:1:pos:R:3:force:R:3:Z:I:1 config_type=slice_sample_high degauss=0.136056917253 ecutwfc=1224.51225528 pbc="T T T" kpoints="32 34 46" energy=-3460.84971314 config_name=prim_x_0006 virial="-1.14605955946 0.158620025878 -0.245279251601 0.158620025878 -0.667160028392 -0.176891549374 -0.245279251601 -0.176891549374 -0.954399978713"
Fe      0.00000000       0.00000000       0.00000000       0.00000000       0.00000000       0.00000000       26 
1
Lattice="2.925163019 0.0 0.0 -0.074448324 2.791778511 0.0 1.55258585 1.457401046 1.46896714" Properties=species:S:1:pos:R:3:force:R:3:Z:I:1 config_type=slice_sample_high degauss=0.136056917253 ecutwfc=1224.51225528 pbc="T T T" kpoints="34 34 46" energy=-3460.87410229 config_name=prim_x_0007 virial="-0.651534069496 0.270215970905 -0.652481306829 0.270215970905 -0.196948264613 -0.364796517196 -0.652481306829 -0.364796517196 -0.562482745778"
Fe      0.00000000       0.00000000       0.00000000       0.00000000       0.00000000       0.00000000       26 
1
Lattice="2.925163019 0.0 0.0 -0.306211915 2.791778511 0.0 1.55258585 1.457401046 1.46896714" Properties=species:S:1:pos:R:3:force:R:3:Z:I:1 config_type=slice_sample_high degauss=0.136056917253 ecutwfc=1224.51225528 pbc="T T T" kpoints="36 34 46" energy=-3460.74134938 config_name=prim_x_0008 virial="-0.561711738647 0.869431699318 -1.4370581641 0.869431699318 0.262362712549 -1.01389640703 -1.4370581641 -1.01389640703 0.0968825532989"
Fe      0.00000000       0.00000000       0.00000000       0.00000000       0.00000000       0.00000000       26 
1
Lattice="2.925163019 0.0 0.0 -0.306211915 2.855061487 0.0 1.55258585 1.457401046 1.46896714" Properties=species:S:1:pos:R:3:force:R:3:Z:I:1 config_type=slice_sample_high degauss=0.136056917253 ecutwfc=1224.51225528 pbc="T T T" kpoints="36 33 46" energy=-3460.76250337 config_name=prim_x_0009 virial="-0.80094207653 0.748935922797 -1.23908012326 0.748935922797 -0.144844516104 -0.76675566185 -1.23908012326 -0.76675566185 -0.264840521241"
Fe      0.00000000       0.00000000       0.00000000       0.00000000       0.00000000       0.00000000       26 
1
Lattice="2.925163019 0.0 0.0 -0.306211915 2.855061487 0.0 1.34596111 1.457401046 1.46896714" Properties=species:S:1:pos:R:3:force:R:3:Z:I:1 config_type=slice_sample_high degauss=0.136056917253 ecutwfc=1224.51225528 pbc="T T T" kpoints="33 33 46" energy=-3460.86196397 config_name=prim_x_0010 virial="-0.834294950951 0.634831019761 -0.223107187999 0.634831019761 -0.588569535382 -0.236905658504 -0.223107187999 -0.236905658504 -0.688909760085"
Fe      0.00000000       0.00000000       0.00000000       0.00000000       0.00000000       0.00000000       26 
1
Lattice="2.925163019 0.0 0.0 -0.306211915 2.855061487 0.0 1.34596111 1.273779788 1.46896714" Properties=species:S:1:pos:R:3:force:R:3:Z:I:1 config_type=slice_sample_high degauss=0.136056917253 ecutwfc=1224.51225528 pbc="T T T" kpoints="33 31 46" energy=-3460.8384264 config_name=prim_x_0011 virial="-0.687580601293 0.637038775042 0.236027062015 0.637038775042 -0.593030102174 0.672543084457 0.236027062015 0.672543084457 -0.604125198866"
Fe      0.00000000       0.00000000       0.00000000       0.00000000       0.00000000       0.00000000       26 
1
Lattice="2.925163019 0.0 0.0 -0.306211915 2.855061487 0.0 1.34596111 1.273779788 1.429032815" Properties=species:S:1:pos:R:3:force:R:3:Z:I:1 config_type=slice_sample_high degauss=0.136056917253 ecutwfc=1224.51225528 pbc="T T T" kpoints="33 32 47" energy=-3460.84927027 config_name=prim_x_0012 virial="-0.415203541009 0.735764212109 0.264894840473 0.735764212109 -0.324308252611 0.726756867075 0.264894840473 0.726756867075 -0.178908664697"
Fe      0.00000000       0.00000000       0.00000000       0.00000000       0.00000000       0.00000000       26 
1
Lattice="2.885027044 0.0 0.0 -0.306211 2.855060269 0.0 1.345963207 1.273779831 1.429031791" Properties=species:S:1:pos:R:3:force:R:3:Z:I:1 config_type=slice_sample_high degauss=0.136056917253 ecutwfc=1224.51225528 pbc="T T T" kpoints="34 32 47" energy=-3460.85531161 config_name=prim_x_0013 virial="-0.191086991779 0.724349496636 0.149715971784 0.724349496636 -0.18339206852 0.73738331328 0.149715971784 0.73738331328 -0.0352107583969"
Fe      0.00000000       0.00000000       0.00000000       0.00000000       0.00000000       0.00000000       26 
1
Lattice="2.885027044 0.0 0.0 0.219865026 2.855060269 0.0 1.345963207 1.273779831 1.429031791" Properties=species:S:1:pos:R:3:force:R:3:Z:I:1 config_type=slice_sample_high degauss=0.136056917253 ecutwfc=1224.51225528 pbc="T T T" kpoints="31 32 47" energy=-3460.82446097 config_name=prim_x_0014 virial="-0.189303758159 -0.173719377063 0.988689564048 -0.173719377063 0.00206422800915 0.626812021334 0.988689564048 0.626812021334 0.0616782683153"
Fe      0.00000000       0.00000000       0.00000000       0.00000000       0.00000000       0.00000000       26 
1
Lattice="2.885027044 0.0 0.0 0.219865026 2.900981244 0.0 1.345963207 1.273779831 1.429031791" Properties=species:S:1:pos:R:3:force:R:3:Z:I:1 config_type=slice_sample_high degauss=0.136056917253 ecutwfc=1224.51225528 pbc="T T T" kpoints="31 31 47" energy=-3460.81232225 config_name=prim_x_0015 virial="-0.302864382033 -0.122551359807 0.920079590754 -0.122551359807 -0.279792660979 0.773797631615 0.920079590754 0.773797631615 -0.0896294084899"
Fe      0.00000000       0.00000000       0.00000000       0.00000000       0.00000000       0.00000000       26 
1
Lattice="2.885027044 0.0 0.0 0.219865026 2.900981244 0.0 1.347166263 1.273779831 1.429031791" Properties=species:S:1:pos:R:3:force:R:3:Z:I:1 config_type=slice_sample_high degauss=0.136056917253 ecutwfc=1224.51225528 pbc="T T T" kpoints="31 31 47" energy=-3460.81309342 config_name=prim_x_0016 virial="-0.302809475509 -0.124736639431 0.911964406623 -0.124736639431 -0.283372566293 0.773632912045 0.911964406623 0.773632912045 -0.092693192485"
Fe      0.00000000       0.00000000       0.00000000       0.00000000       0.00000000       0.00000000       26 
1
Lattice="2.885027044 0.0 0.0 0.219865026 2.900981244 0.0 1.347166263 1.491244514 1.429031791" Properties=species:S:1:pos:R:3:force:R:3:Z:I:1 config_type=slice_sample_high degauss=0.136056917253 ecutwfc=1224.51225528 pbc="T T T" kpoints="31 34 47" energy=-3460.81788711 config_name=prim_x_0017 virial="-0.503822256985 -0.634466838314 1.08020897505 -0.634466838314 -0.150290135334 -0.662688791244 1.08020897505 -0.662688791244 -0.0991941248332"
Fe      0.00000000       0.00000000       0.00000000       0.00000000       0.00000000       0.00000000       26 
1
Lattice="2.885027044 0.0 0.0 0.219865026 2.900981244 0.0 1.347166263 1.491244514 1.398291828" Properties=species:S:1:pos:R:3:force:R:3:Z:I:1 config_type=slice_sample_high degauss=0.136056917253 ecutwfc=1224.51225528 pbc="T T T" kpoints="31 34 48" energy=-3460.81582843 config_name=prim_x_0018 virial="-0.281789862934 -0.702406228408 1.14656507585 -0.702406228408 0.112361357357 -0.708649122988 1.14656507585 -0.708649122988 0.283401625734"
Fe      0.00000000       0.00000000       0.00000000       0.00000000       0.00000000       0.00000000       26 
1
Lattice="2.724980044 0.0 0.0 0.219865015 2.90098378 0.0 1.347164734 1.491245329 1.398293535" Properties=species:S:1:pos:R:3:force:R:3:Z:I:1 config_type=slice_sample_high degauss=0.136056917253 ecutwfc=1224.51225528 pbc="T T T" kpoints="33 34 48" energy=-3460.8480512 config_name=prim_x_0019 virial="0.803772136842 -0.748744136716 0.801407414594 -0.748744136716 0.526947398474 -0.614645102105 0.801407414594 -0.614645102105 0.770158574242"
Fe      0.00000000       0.00000000       0.00000000       0.00000000       0.00000000       0.00000000       26 
1
Lattice="2.724980044 0.0 0.0 -0.020410101 2.90098378 0.0 1.347164734 1.491245329 1.398293535" Properties=species:S:1:pos:R:3:force:R:3:Z:I:1 config_type=slice_sample_high degauss=0.136056917253 ecutwfc=1224.51225528 pbc="T T T" kpoints="35 34 48" energy=-3460.91341716 config_name=prim_x_0020 virial="0.777262890009 0.0556470904997 0.0176491501694 0.0556470904997 0.158720563255 -0.255065234076 0.0176491501694 -0.255065234076 0.466164902577"
Fe      0.00000000       0.00000000       0.00000000       0.00000000       0.00000000       0.00000000       26 
1
Lattice="2.724980044 0.0 0.0 -0.020410101 2.89619054 0.0 1.347164734 1.491245329 1.398293535" Properties=species:S:1:pos:R:3:force:R:3:Z:I:1 config_type=slice_sample_high degauss=0.136056917253 ecutwfc=1224.51225528 pbc="T T T" kpoints="35 34 48" energy=-3460.91265198 config_name=prim_x_0021 virial="0.799748900089 0.0560212295371 0.0173970792395 0.0560212295371 0.19106390403 -0.273013570244 0.0173970792395 -0.273013570244 0.48869885025"
Fe      0.00000000       0.00000000       0.00000000       0.00000000       0.00000000       0.00000000       26 
1
Lattice="2.724980044 0.0 0.0 -0.020410101 2.89619054 0.0 1.239421748 1.491245329 1.398293535" Properties=species:S:1:pos:R:3:force:R:3:Z:I:1 config_type=slice_sample_high degauss=0.136056917253 ecutwfc=1224.51225528 pbc="T T T" kpoints="33 34 48" energy=-3460.88775887 config_name=prim_x_0022 virial="0.819172430027 -0.0433660449302 0.626720407269 -0.0433660449302 0.370212277958 -0.264603799848 0.626720407269 -0.264603799848 0.613558609987"
Fe      0.00000000       0.00000000       0.00000000       0.00000000       0.00000000       0.00000000       26 
1
Lattice="2.724980044 0.0 0.0 -0.020410101 2.89619054 0.0 1.239421748 1.420303198 1.398293535" Properties=species:S:1:pos:R:3:force:R:3:Z:I:1 config_type=slice_sample_high degauss=0.136056917253 ecutwfc=1224.51225528 pbc="T T T" kpoints="33 33 48" energy=-3460.8889959 config_name=prim_x_0023 virial="0.800640538396 0.126876078181 0.641017016941 0.126876078181 0.359593676302 0.217630672676 0.641017016941 0.217630672676 0.598765519894"
Fe      0.00000000       0.00000000       0.00000000       0.00000000       0.00000000       0.00000000       26 
1
Lattice="2.724980044 0.0 0.0 -0.020410101 2.89619054 0.0 1.239421748 1.420303198 1.363250291" Properties=species:S:1:pos:R:3:force:R:3:Z:I:1 config_type=slice_sample_high degauss=0.136056917253 ecutwfc=1224.51225528 pbc="T T T" kpoints="34 34 49" energy=-3460.86647834 config_name=prim_x_0024 virial="1.10544380002 0.138029830552 0.694041212678 0.138029830552 0.705401286043 0.237968841193 0.694041212678 0.237968841193 1.17328813383"
Fe      0.00000000       0.00000000       0.00000000       0.00000000       0.00000000       0.00000000       26 
1
Lattice="2.838091143 0.0 0.0 -0.020411551 2.896189707 0.0 1.239419945 1.420302846 1.363251538" Properties=species:S:1:pos:R:3:force:R:3:Z:I:1 config_type=slice_sample_high degauss=0.136056917253 ecutwfc=1224.51225528 pbc="T T T" kpoints="32 34 49" energy=-3460.86344427 config_name=prim_x_0025 virial="0.271612971749 0.158204267674 0.949256471154 0.158204267674 0.393777078816 0.228813351959 0.949256471154 0.228813351959 0.777512708373"
Fe      0.00000000       0.00000000       0.00000000       0.00000000       0.00000000       0.00000000       26 
1
Lattice="2.668516835 0.0 0.0 0.0 2.866787636 0.0 1.433393818 1.433393818 1.433393818" Properties=species:S:1:pos:R:3:force:R:3:Z:I:1 config_type=slice_sample_high degauss=0.136056917253 ecutwfc=1224.51225528 pbc="T T T" kpoints="36 33 47" energy=-3460.88484807 config_name=prim_x_0026 virial="1.13642859384 -0.000392656547654 -0.552598648066 -0.000392656547654 0.445967225086 0.000181226098917 -0.552598648066 0.000181226098917 0.43972499279"
Fe      0.00000000       0.00000000       0.00000000       0.00000000       0.00000000       0.00000000       26 
1
Lattice="2.668516835 0.0 0.0 -0.030506484 2.866787636 0.0 1.433393818 1.433393818 1.433393818" Properties=species:S:1:pos:R:3:force:R:3:Z:I:1 config_type=slice_sample_high degauss=0.136056917253 ecutwfc=1224.51225528 pbc="T T T" kpoints="36 33 47" energy=-3460.87805243 config_name=prim_x_0027 virial="1.13376054294 0.0881765652399 -0.636989601462 0.0881765652399 0.4938109152 -0.0421249998817 -0.636989601462 -0.0421249998817 0.486753165459"
Fe      0.00000000       0.00000000       0.00000000       0.00000000       0.00000000       0.00000000       26 
1
Lattice="2.668516835 0.0 0.0 -0.030506484 2.911426586 0.0 1.433393818 1.433393818 1.433393818" Properties=species:S:1:pos:R:3:force:R:3:Z:I:1 config_type=slice_sample_high degauss=0.136056917253 ecutwfc=1224.51225528 pbc="T T T" kpoints="36 33 47" energy=-3460.88294477 config_name=prim_x_0028 virial="0.956599617202 0.0278628196682 -0.563442450574 0.0278628196682 0.196890442396 0.101553587135 -0.563442450574 0.101553587135 0.287135303457"
Fe      0.00000000       0.00000000       0.00000000       0.00000000       0.00000000       0.00000000       26 
1
Lattice="2.668516835 0.0 0.0 -0.030506484 2.911426586 0.0 1.479046804 1.433393818 1.433393818" Properties=species:S:1:pos:R:3:force:R:3:Z:I:1 config_type=slice_sample_high degauss=0.136056917253 ecutwfc=1224.51225528 pbc="T T T" kpoints="37 33 47" energy=-3460.86098695 config_name=prim_x_0029 virial="0.925740905364 0.0146011399949 -0.820925578972 0.0146011399949 0.35291200765 0.0990587144753 -0.820925578972 0.0990587144753 0.40961923623"
Fe      0.00000000       0.00000000       0.00000000       0.00000000       0.00000000       0.00000000       26 
1
Lattice="2.668516835 0.0 0.0 -0.030506484 2.911426586 0.0 1.479046804 1.592119868 1.433393818" Properties=species:S:1:pos:R:3:force:R:3:Z:I:1 config_type=slice_sample_high degauss=0.136056917253 ecutwfc=1224.51225528 pbc="T T T" kpoints="37 35 47" energy=-3460.81002547 config_name=prim_x_0030 virial="1.08225326524 0.461561667024 -0.965924715013 0.461561667024 0.426101755608 -1.05115938098 -0.965924715013 -1.05115938098 0.652276277098"
Fe      0.00000000       0.00000000       0.00000000       0.00000000       0.00000000       0.00000000       26 
1
Lattice="2.668516835 0.0 0.0 -0.030506484 2.911426586 0.0 1.479046804 1.592119868 1.525604417" Properties=species:S:1:pos:R:3:force:R:3:Z:I:1 config_type=slice_sample_high degauss=0.136056917253 ecutwfc=1224.51225528 pbc="T T T" kpoints="35 34 44" energy=-3460.81688927 config_name=prim_x_0031 virial="0.331833997562 0.3317469363 -0.73726740892 0.3317469363 -0.374461367641 -0.818789397499 -0.73726740892 -0.818789397499 -0.386900245353"
Fe      0.00000000       0.00000000       0.00000000       0.00000000       0.00000000       0.00000000       26 
1
Lattice="2.723892584 0.0 0.0 -0.030504873 2.911427141 0.0 1.479046434 1.592120663 1.525603206" Properties=species:S:1:pos:R:3:force:R:3:Z:I:1 config_type=slice_sample_high degauss=0.136056917253 ecutwfc=1224.51225528 pbc="T T T" kpoints="35 34 44" energy=-3460.83347692 config_name=prim_x_0032 virial="-0.0490661673175 0.281811093203 -0.599624778273 0.281811093203 -0.610200053638 -0.728072161722 -0.599624778273 -0.728072161722 -0.671596636559"
Fe      0.00000000       0.00000000       0.00000000       0.00000000       0.00000000       0.00000000       26 
1
Lattice="2.723892584 0.0 0.0 0.420797822 2.911427141 0.0 1.479046434 1.592120663 1.525603206" Properties=species:S:1:pos:R:3:force:R:3:Z:I:1 config_type=slice_sample_high degauss=0.136056917253 ecutwfc=1224.51225528 pbc="T T T" kpoints="32 34 44" energy=-3460.76047476 config_name=prim_x_0033 virial="-0.124737150285 -0.970914698224 0.865850670492 -0.970914698224 -0.34890632766 -1.11162584638 0.865850670492 -1.11162584638 -0.183678758568"
Fe      0.00000000       0.00000000       0.00000000       0.00000000       0.00000000       0.00000000       26 
1
Lattice="2.723892584 0.0 0.0 0.420797822 2.936990873 0.0 1.479046434 1.592120663 1.525603206" Properties=species:S:1:pos:R:3:force:R:3:Z:I:1 config_type=slice_sample_high degauss=0.136056917253 ecutwfc=1224.51225528 pbc="T T T" kpoints="32 33 44" energy=-3460.7666425 config_name=prim_x_0034 virial="-0.210930921063 -0.929707478403 0.788982274838 -0.929707478403 -0.472916470844 -1.01621795551 0.788982274838 -1.01621795551 -0.317040727764"
Fe      0.00000000       0.00000000       0.00000000       0.00000000       0.00000000       0.00000000       26 
1
Lattice="2.723892584 0.0 0.0 0.420797822 2.936990873 0.0 1.56156676 1.592120663 1.525603206" Properties=species:S:1:pos:R:3:force:R:3:Z:I:1 config_type=slice_sample_high degauss=0.136056917253 ecutwfc=1224.51225528 pbc="T T T" kpoints="33 33 44" energy=-3460.79971154 config_name=prim_x_0035 virial="-0.189807572702 -0.823149430887 0.433841077881 -0.823149430887 -0.60410535109 -0.7424324663 0.433841077881 -0.7424324663 -0.494566502161"
Fe      0.00000000       0.00000000       0.00000000       0.00000000       0.00000000       0.00000000       26 
1
Lattice="2.723892584 0.0 0.0 0.420797822 2.936990873 0.0 1.56156676 1.596438033 1.525603206" Properties=species:S:1:pos:R:3:force:R:3:Z:I:1 config_type=slice_sample_high degauss=0.136056917253 ecutwfc=1224.51225528 pbc="T T T" kpoints="33 33 44" energy=-3460.79757558 config_name=prim_x_0036 virial="-0.183935618038 -0.826869829644 0.446660765162 -0.826869829644 -0.602514096201 -0.767679630151 0.446660765162 -0.767679630151 -0.485411183535"
Fe      0.00000000       0.00000000       0.00000000       0.00000000       0.00000000       0.00000000       26 
1
Lattice="2.723892584 0.0 0.0 0.420797822 2.936990873 0.0 1.56156676 1.596438033 1.648475277" Properties=species:S:1:pos:R:3:force:R:3:Z:I:1 config_type=slice_sample_high degauss=0.136056917253 ecutwfc=1224.51225528 pbc="T T T" kpoints="32 32 41" energy=-3460.73298229 config_name=prim_x_0037 virial="-0.816685584138 -0.483760915348 0.291791913748 -0.483760915348 -1.27437678456 -0.629342049841 0.291791913748 -0.629342049841 -1.16294176994"
Fe      0.00000000       0.00000000       0.00000000       0.00000000       0.00000000       0.00000000       26 
1
Lattice="2.616581267 0.0 0.0 0.420795983 2.936989493 0.0 1.561567851 1.596436413 1.648474981" Properties=species:S:1:pos:R:3:force:R:3:Z:I:1 config_type=slice_sample_high degauss=0.136056917253 ecutwfc=1224.51225528 pbc="T T T" kpoints="33 32 41" energy=-3460.75606339 config_name=prim_x_0038 virial="-0.150593202418 -0.388015651462 0.076104991382 -0.388015651462 -1.05806060539 -0.590310930403 0.076104991382 -0.590310930403 -0.822243305179"
Fe      0.00000000       0.00000000       0.00000000       0.00000000       0.00000000       0.00000000       26 
1
Lattice="2.616581267 0.0 0.0 0.100748845 2.936989493 0.0 1.561567851 1.596436413 1.648474981" Properties=species:S:1:pos:R:3:force:R:3:Z:I:1 config_type=slice_sample_high degauss=0.136056917253 ecutwfc=1224.51225528 pbc="T T T" kpoints="35 32 41" energy=-3460.74839495 config_name=prim_x_0039 virial="-0.145533494142 0.036360110509 -0.502690740875 0.036360110509 -0.961449256098 -0.504365678788 -0.502690740875 -0.504365678788 -0.954237717865"
Fe      0.00000000       0.00000000       0.00000000       0.00000000       0.00000000       0.00000000       26 
1
Lattice="2.616581267 0.0 0.0 0.100748845 2.790288248 0.0 1.561567851 1.596436413 1.648474981" Properties=species:S:1:pos:R:3:force:R:3:Z:I:1 config_type=slice_sample_high degauss=0.136056917253 ecutwfc=1224.51225528 pbc="T T T" kpoints="35 34 41" energy=-3460.75195787 config_name=prim_x_0040 virial="0.236812743385 0.196213115798 -0.669275025811 0.196213115798 -0.426262938093 -0.851730238412 -0.669275025811 -0.851730238412 -0.335969101127"
Fe      0.00000000       0.00000000       0.00000000       0.00000000       0.00000000       0.00000000       26 
1
Lattice="2.616581267 0.0 0.0 0.100748845 2.790288248 0.0 1.338813054 1.596436413 1.648474981" Properties=species:S:1:pos:R:3:force:R:3:Z:I:1 config_type=slice_sample_high degauss=0.136056917253 ecutwfc=1224.51225528 pbc="T T T" kpoints="33 34 41" energy=-3460.77965389 config_name=prim_x_0041 virial="0.490709597889 -0.106958028149 0.188521950637 -0.106958028149 -0.438915788825 -0.82331933952 0.188521950637 -0.82331933952 -0.51624736037"
Fe      0.00000000       0.00000000       0.00000000       0.00000000       0.00000000       0.00000000       26 
1
Lattice="2.616581267 0.0 0.0 0.100748845 2.790288248 0.0 1.338813054 1.455991413 1.648474981" Properties=species:S:1:pos:R:3:force:R:3:Z:I:1 config_type=slice_sample_high degauss=0.136056917253 ecutwfc=1224.51225528 pbc="T T T" kpoints="33 32 41" energy=-3460.82507622 config_name=prim_x_0042 virial="0.394337972361 -0.00129291138479 0.0896750075862 -0.00129291138479 -0.281125347257 -0.271533491855 0.0896750075862 -0.271533491855 -0.743622955699"
Fe      0.00000000       0.00000000       0.00000000       0.00000000       0.00000000       0.00000000       26 
1
Lattice="2.616581267 0.0 0.0 0.100748845 2.790288248 0.0 1.338813054 1.455991413 1.499439745" Properties=species:S:1:pos:R:3:force:R:3:Z:I:1 config_type=slice_sample_high degauss=0.136056917253 ecutwfc=1224.51225528 pbc="T T T" kpoints="34 34 45" energy=-3460.86246956 config_name=prim_x_0043 virial="1.46008650045 -0.260453675794 0.178865898455 -0.260453675794 0.574441477757 -0.403053872556 0.178865898455 -0.403053872556 0.234279649406"
Fe      0.00000000       0.00000000       0.00000000       0.00000000       0.00000000       0.00000000       26 
1
Lattice="2.994601652 0.0 0.0 0.100750378 2.790288965 0.0 1.338814528 1.455993291 1.499438972" Properties=species:S:1:pos:R:3:force:R:3:Z:I:1 config_type=slice_sample_high degauss=0.136056917253 ecutwfc=1224.51225528 pbc="T T T" kpoints="30 34 45" energy=-3460.79473526 config_name=prim_x_0044 virial="-1.02948136503 -0.314830889892 0.990369079676 -0.314830889892 -0.366781207736 -0.431788126721 0.990369079676 -0.431788126721 -0.757858046846"
Fe      0.00000000       0.00000000       0.00000000       0.00000000       0.00000000       0.00000000       26 
1
Lattice="2.994601652 0.0 0.0 -0.039157411 2.790288965 0.0 1.338814528 1.455993291 1.499438972" Properties=species:S:1:pos:R:3:force:R:3:Z:I:1 config_type=slice_sample_high degauss=0.136056917253 ecutwfc=1224.51225528 pbc="T T T" kpoints="31 34 45" energy=-3460.84145775 config_name=prim_x_0045 virial="-1.07551882562 -0.0452667184933 0.57126943847 -0.0452667184933 -0.527107066857 -0.176246859984 0.57126943847 -0.176246859984 -1.00088338227"
Fe      0.00000000       0.00000000       0.00000000       0.00000000       0.00000000       0.00000000       26 
1
Lattice="2.994601652 0.0 0.0 -0.039157411 2.880360594 0.0 1.338814528 1.455993291 1.499438972" Properties=species:S:1:pos:R:3:force:R:3:Z:I:1 config_type=slice_sample_high degauss=0.136056917253 ecutwfc=1224.51225528 pbc="T T T" kpoints="31 33 45" energy=-3460.82003273 config_name=prim_x_0046 virial="-1.26387515934 0.0340217446961 0.483797522047 0.0340217446961 -0.983531233058 -0.0157936895099 0.483797522047 -0.0157936895099 -1.19435917558"
Fe      0.00000000       0.00000000       0.00000000       0.00000000       0.00000000       0.00000000       26 
1
Lattice="2.994601652 0.0 0.0 -0.039157411 2.880360594 0.0 1.579838037 1.455993291 1.499438972" Properties=species:S:1:pos:R:3:force:R:3:Z:I:1 config_type=slice_sample_high degauss=0.136056917253 ecutwfc=1224.51225528 pbc="T T T" kpoints="33 33 45" energy=-3460.82936025 config_name=prim_x_0047 virial="-1.24812896964 0.0727459713817 -0.340039322644 0.0727459713817 -1.02496294937 -0.0766647063728 -0.340039322644 -0.0766647063728 -1.212527856"
Fe      0.00000000       0.00000000       0.00000000       0.00000000       0.00000000       0.00000000       26 
1
Lattice="2.994601652 0.0 0.0 -0.039157411 2.880360594 0.0 1.579838037 1.307583828 1.499438972" Properties=species:S:1:pos:R:3:force:R:3:Z:I:1 config_type=slice_sample_high degauss=0.136056917253 ecutwfc=1224.51225528 pbc="T T T" kpoints="33 31 45" energy=-3460.8132473 config_name=prim_x_0048 virial="-1.19906165757 -0.0917933984297 -0.376851681652 -0.0917933984297 -1.06464904738 0.437734573469 -0.376851681652 0.437734573469 -1.21245660627"
Fe      0.00000000       0.00000000       0.00000000       0.00000000       0.00000000       0.00000000       26 
1
Lattice="2.994601652 0.0 0.0 -0.039157411 2.880360594 0.0 1.579838037 1.307583828 1.345055278" Properties=species:S:1:pos:R:3:force:R:3:Z:I:1 config_type=slice_sample_high degauss=0.136056917253 ecutwfc=1224.51225528 pbc="T T T" kpoints="35 33 50" energy=-3460.86398809 config_name=prim_x_0049 virial="-0.268927906702 -0.186084987807 -0.481419940406 -0.186084987807 -0.16987219077 0.564635689719 -0.481419940406 0.564635689719 0.489760689473"
Fe      0.00000000       0.00000000       0.00000000       0.00000000       0.00000000       0.00000000       26 
1
Lattice="2.899851415 0.0 0.0 -0.039156694 2.880361513 0.0 1.579839051 1.307583601 1.345055481" Properties=species:S:1:pos:R:3:force:R:3:Z:I:1 config_type=slice_sample_high degauss=0.136056917253 ecutwfc=1224.51225528 pbc="T T T" kpoints="36 33 50" energy=-3460.83828422 config_name=prim_x_0050 virial="0.289776286928 -0.295821029351 -0.86884404356 -0.295821029351 0.354886208724 0.761637545267 -0.86884404356 0.761637545267 0.961000577357"
Fe      0.00000000       0.00000000       0.00000000       0.00000000       0.00000000       0.00000000       26 
1
Lattice="2.899851415 0.0 0.0 -0.091945589 2.880361513 0.0 1.579839051 1.307583601 1.345055481" Properties=species:S:1:pos:R:3:force:R:3:Z:I:1 config_type=slice_sample_high degauss=0.136056917253 ecutwfc=1224.51225528 pbc="T T T" kpoints="37 33 50" energy=-3460.82601869 config_name=prim_x_0051 virial="0.305785570615 -0.168623556971 -0.992771578487 -0.168623556971 0.44499000576 0.710257234674 -0.992771578487 0.710257234674 0.986964087046"
Fe      0.00000000       0.00000000       0.00000000       0.00000000       0.00000000       0.00000000       26 
1
Lattice="2.899851415 0.0 0.0 -0.091945589 2.896681877 0.0 1.579839051 1.307583601 1.345055481" Properties=species:S:1:pos:R:3:force:R:3:Z:I:1 config_type=slice_sample_high degauss=0.136056917253 ecutwfc=1224.51225528 pbc="T T T" kpoints="37 33 50" energy=-3460.82423172 config_name=prim_x_0052 virial="0.252516781024 -0.190896960167 -0.97220309276 -0.190896960167 0.339323962997 0.760714323771 -0.97220309276 0.760714323771 0.922948730904"
Fe      0.00000000       0.00000000       0.00000000       0.00000000       0.00000000       0.00000000       26 
1