126
Lattice="11.3344 0.0 0.0 0.0 11.3344 0.0 0.0 0.0 11.3344" Properties=species:S:1:pos:R:3:force:R:3:Z:I:1 config_type=doublevacancy_126_1NN_high config_name=doublevacancy_126_1NN_high_0000 ecutwfc=1224.51225528 pbc="T T T" kpoints="3 3 3" timestamp=1470309135.58 degauss=0.136056917253 energy=-436063.129743
Fe     0.116685891      0.120002586      2.700610277     -0.263061902      0.165817382      0.947611680       26
Fe     1.538329466      1.550669374      4.295294334     -1.372347374     -1.630570716     -0.085948378       26
Fe     0.099799301     -0.019767500      5.504742843     -1.179842713      0.814453735      1.590003080       26
Fe     1.409688185      1.372869724      7.103504666      0.075966327      1.117983514      0.074660978       26
Fe     0.023980417     -0.076560540      8.357395584     -0.477204453      0.682409335      0.792983995       26
Fe     1.471575199      1.433417511      9.866010039     -0.717234927      0.272264394     -0.062063087       26
Fe     0.067229064      3.043654031     -0.135972155     -0.363724188     -1.066990312      0.960028822       26
Fe     1.437535956      4.439708906      1.410702773      0.011352706     -0.903667414     -0.501122139       26
Fe     0.192172712      2.705521337      2.560519938     -1.050825015      0.200199459      0.634094193       26
Fe     1.440516835      4.211279137      4.064008954     -0.660620007      0.751850973      1.546922448       26
Fe     0.066730521      2.963122394      5.788268938     -1.075419673     -1.044687535     -1.453882967       26
Fe     1.362667484      4.328926854      7.030591185      0.592851385      0.417014671      1.278544790       26
Fe    -0.047396482      2.849824468      8.503030803      0.669188465      0.197181241     -0.070746216       26
Fe     1.485372871      4.357313689      9.942257681     -0.554224418     -0.294533489     -0.018502172       26
Fe    -0.000964478      5.737521009     -0.016243521     -0.516394235     -0.575665875      0.129510578       26
Fe     1.448544367      7.048887922      1.333693912     -0.048588450      1.501524994      0.797160752       26
Fe    -0.004237252      5.746737350      2.809819601     -0.210438106     -0.382062581      0.374070564       26
Fe     1.344847211      7.149659919      4.256847392      0.757440037     -0.312726101      0.205981098       26
Fe    -0.093971074      5.744664186      5.653183076      0.991525864     -0.136755432      0.008835596       26
Fe     1.461194510      7.206486814      7.104468147     -0.827300766     -1.371182664     -0.629869100       26
Fe    -0.028939160      5.728207091      8.548080203     -0.256784553     -0.539519765     -0.585836645       26
Fe     1.330468969      7.169284843      9.831962544      0.740101804     -0.353416379      2.280239110       26
Fe    -0.061880916      8.570559242      0.007617386      0.065907915     -1.065733556     -0.403937784       26
Fe     1.229786639      9.801512078      1.456660863      2.031808071      0.788991587     -0.534635954       26
Fe    -0.091304407      8.564274068      2.886588275      0.369308367     -0.596483840     -0.454038299       26
Fe     1.295072296      9.931693624      4.229723323      1.873933340      0.148641128     -0.418567361       26
Fe     0.006258686      8.608129899      5.660107000     -0.281784417     -0.366971749      0.521379861       26
Fe     1.478946855      9.945369552      7.117408087     -0.767615435     -0.366515378     -0.311495828       26
Fe     0.078000110      8.491294371      8.575131335     -1.422906060      0.959297601     -0.745220613       26
Fe     1.382130564     10.091802463     10.071400395     -0.400207370     -0.349495447     -0.527058656       26
Fe     2.911697892      0.196024368     -0.036299311     -1.050808046     -1.522357357      0.757981769       26
Fe     4.244209740      1.340997766      1.329542428      0.738442414      0.671491403      1.507024584       26
Fe     2.862092165     -0.046849745      2.700414634     -0.899052541      0.604896232      1.049522494       26
Fe     4.292573897      1.446063460      4.180559048     -0.722420584     -0.530336556      0.386263507       26
Fe     2.802881860      0.075587685      5.740147246      0.675647077     -0.435148147     -1.024661470       26
Fe     4.262686206      1.453306357      7.058824575     -0.489290180      0.211186554      0.655793532       26
Fe     2.803947317     -0.051404032      8.454751676      0.814047501      0.439672518      0.829893466       26
Fe     4.261525643      1.401710581      9.881986442      0.082636283      0.153125646     -0.181062995       26
Fe     2.803696044      2.818531958      0.100323597     -0.311000634      0.276890323     -0.400346724       26
Fe     4.266415802      4.176665500      1.518916551      0.070085700      0.412699075     -0.633611340       26
Fe     2.699936062      2.702977002      2.751747338      1.361357965      0.391927904     -0.535934361       26
Fe     4.231793653      4.173199407      4.215940194      0.169514629      0.636619531      0.318546564       26
Fe     2.742487893      2.923620344      5.663300604      1.126229556     -0.376012519      0.339961539       26
Fe     4.298509586      4.256999432      7.086292586     -0.552237469      0.227573994      0.697860893       26
Fe     2.954118970      2.955412860      8.576816012     -1.315481001     -0.712257271     -0.813130902       26
Fe     4.195631930      4.314263824      9.999629716      1.058651196      0.076801678     -0.143949636       26
Fe     2.940921909      5.788570863      0.096466818     -0.419409397     -0.612195080     -0.324001159       26
Fe     4.458870548      7.135603574      1.414915157     -1.251703759     -0.562698259      0.929895751       26
Fe     2.841582773      5.661669640      2.901479953      0.448248946      0.585944631     -0.544132581       26
Fe     4.248823442      7.039216539      4.287499837      0.336141908      0.185918524      0.201162337       26
Fe     2.894291949      5.649553518      5.744924311     -0.854234100      0.388977049     -0.762650121       26
Fe     4.268264216      7.034942223      7.126062593     -0.741691260      0.975578597     -0.116170924       26
Fe     2.762377623      5.766013299      8.673387526      0.997716566     -0.596108973     -1.572275838       26
Fe     4.283317931      7.095768145     10.031022502     -0.007617407      0.419945215     -0.518002460       26
Fe     2.881978597      8.717352281     -0.027764350     -0.720094508     -1.705548454      0.745552285       26
Fe     4.179795449      9.843726121      1.582372734      1.560821831      0.510086033     -1.161344140       26
Fe     2.899710540      8.492017540      2.902056852     -0.760842635     -0.371652956     -0.033017335       26
Fe     4.301048446      9.917645179      4.369991669     -0.409481596      0.102237345     -0.522364593       26
Fe     2.804603034      8.598313482      5.754672280      0.424296550     -0.890079905     -1.052111852       26
Fe     4.273240686      9.858888998      7.095041122     -0.852182102      0.168465104      0.456851857       26
Fe     2.745941451      8.401189371      8.525086514      1.593533976      1.713260992      0.469647980       26
Fe     4.366864462      9.913887440     10.069524393     -1.005715011     -0.065917428     -1.303234322       26
Fe     5.634484127     -0.006370409      0.036046430      0.725727537     -0.608383419     -0.187492810       26
Fe     6.995493875      1.357425471      1.353647341      1.171902118     -0.172500965     -0.088793046       26
Fe     5.781056734     -0.068749835      2.978122520     -1.373884636     -0.463502530     -1.605508375       26
Fe     6.990008445      1.399080162      4.092217726      1.398678555     -0.582787831      2.154050397       26
Fe     5.630309169      0.050245237      5.821614992     -0.175330464     -0.545815368     -1.983569034       26
Fe     7.076461264      1.369919607      6.952788939     -0.416360326      0.347306152      1.498119311       26
Fe     5.595912178     -0.108680087      8.505896558      0.483613441      1.218467623      0.351056877       26
Fe     7.136648968      1.424431973      9.821726561     -0.774901941     -0.683396381      0.034703721       26
Fe     5.635568569      2.750959801     -0.048577221     -0.033433339      0.550430241      0.128670856       26
Fe     7.066634781      4.118743645      1.306996345      0.328141921      0.800241191      0.967950905       26
Fe     5.773697818      2.751539443      2.789861457     -1.600723037      0.568506638     -0.204706345       26
Fe     7.058831398      4.063753534      4.398012323      0.549924505      1.655937734     -1.206891489       26
Fe     5.604026101      2.853308946      5.617661010      0.184373805     -0.708692179      0.819859736       26
Fe     7.096191020      4.181409661      7.127558099     -0.235561383      0.380924097     -0.402619065       26
Fe     5.642454591      2.876966503      8.566817621      0.184668967     -0.490634095     -0.870346689       26
Fe     7.013135336      4.234818646      9.887476202      0.136747462      0.240053357     -0.079982647       26
Fe     5.775065767      5.625358235      0.047728626     -0.696221815      0.357806280     -0.247102036       26
Fe     7.233891795      7.133769486      1.388411499     -1.498391591     -0.868480582      0.524516350       26
Fe     5.765325698      5.570671047      2.908229283     -0.560698970      0.039696032     -0.502594610       26
Fe     7.055626698      6.982146735      4.249080494      0.193390406      0.486131837      0.216112530       26
Fe     5.660485467      5.683877255      5.861158469      0.197847156     -0.766054261     -2.179801023       26
Fe     7.112177386      7.068510874      6.939667558      0.183809448      0.361763722      1.652897148       26
Fe     5.678512921      5.838988405      8.478787904     -0.089102350     -1.925720242      0.723020680       26
Fe     7.108059021      7.128967611      9.797068506     -0.212644883     -0.618923399      1.234641148       26
Fe     5.768765598      8.430202760      0.047058808     -0.105701392      1.069530562     -0.138563432       26
Fe     7.246285951      9.916059859      1.443925293     -1.641899768     -0.617603138      0.023585243       26
Fe     5.781934175      8.467129657      2.899692553     -0.477026789      0.143840107     -0.127264977       26
Fe     7.159966572      9.872101588      4.308755226     -1.011495622     -0.126654854     -0.465848404       26
Fe     5.719323630      8.471217794      5.672070596     -0.751361950     -0.102072023     -0.082408226       26
Fe     6.890289584      9.891314778      7.124793662      2.040284483     -0.494415417     -0.289088664       26
Fe     5.604430818      8.476979818      8.516523884      0.209766791     -0.176087654      0.014963049       26
Fe     7.103516250      9.811056300      9.856629463     -0.316598439      0.626725155      0.215969063       26
Fe     8.359882420     -0.087804741     -0.113649371      0.999209863      0.756701617      0.210103862       26
Fe     9.933390463      1.301930310      1.250143732     -0.216654004      0.642211166     -0.367788845       26
Fe     8.530966766     -0.098936209      2.752653762      0.151150267      1.236420608      0.496931241       26
Fe     9.829330798      1.360762001      4.391620333      1.001173928      0.284126692     -1.510707689       26
Fe     8.376733068     -0.127721324      5.664913908      0.872361919      1.200777405      0.254476731       26
Fe     9.853658819      1.465816554      7.129161407      1.214246643     -1.227970678     -0.984457644       26
Fe     8.489785219     -0.074257911      8.392644038     -0.411765507      0.345992576      0.788610292       26
Fe    10.013999038      1.352719349      9.906235791     -0.135140780     -0.394135196      0.260433977       26
Fe     8.449720042      2.869463062     -0.118173055      0.244655117     -1.329874036      0.921249388       26
Fe     9.856174341      4.154647873      1.544146053      0.367378754      0.567677715     -1.412623961       26
Fe     8.441488037      2.709875435      2.824422140      0.872636256      0.316749106     -0.143191932       26
Fe     9.917583191      4.316264312      4.194873330     -0.109692772     -0.821363060      0.336684411       26
Fe     8.488638529      2.700459994      5.684891242      0.049797382      1.246385432     -0.324373969       26
Fe     9.862523850      4.315406173      7.076744681      0.191530727     -0.192917323     -0.053977996       26
Fe     8.527182788      2.726045997      8.407727846     -0.897101845      0.738784885      0.594648072       26
Fe     9.699631033      4.161034241      9.869956054      1.841446681      1.233288747      0.174971024       26
Fe     8.450976210      5.726921033     -0.009962745      0.305069870     -1.109117579      0.150513919       26
Fe     9.915525408      7.054140759      1.470579382      0.104719230      0.487625391     -0.574442287       26
Fe     8.429757160      5.645003742      2.793647351      0.384737814     -0.580347597      0.596242413       26
Fe     9.878537079      7.216611222      4.301433091      0.634760880     -1.464683143     -0.304218835       26
Fe     8.509514737      5.757227258      5.614720776     -0.025472433     -1.285382382      0.447530323       26
Fe     9.946388424      7.183988132      7.083073050     -0.080412793     -0.832899343      0.227845245       26
Fe     8.435946116      5.586310626      8.508966945      0.185760658      0.836628985     -0.623695110       26
Fe     9.845371117      7.003020903      9.989665747      0.422789112      1.035599714     -0.656409312       26
Fe     8.473580019      8.523121457      0.044281653      1.123098210     -0.065084647     -0.698673105       26
Fe    10.051231828     10.018985290      1.359512973     -1.037720617     -0.188715884     -0.172278050       26
Fe     8.513461828      8.358312560      2.921980528     -0.006136709      1.565850137     -0.803223414       26
Fe     9.847431030      9.996951001      4.230705823      0.651017194     -0.481781530      0.055135250       26
Fe     8.516413725      8.502269698      5.642330162     -0.445466756      0.122498151      0.585473348       26
Fe     9.828034358      9.873699863      7.115517373      0.860276963      0.240773523     -0.586278874       26
Fe     8.491692232      8.394693762      8.481303143      0.034704493      0.848821927     -0.256078528       26
Fe     9.925800574      9.937951709      9.869036992      0.008535034     -0.061914220      0.430976018       26
126
Lattice="11.3344 0.0 0.0 0.0 11.3344 0.0 0.0 0.0 11.3344" Properties=species:S:1:pos:R:3:force:R:3:Z:I:1 config_type=doublevacancy_126_1NN_high config_name=doublevacancy_126_1NN_high_0001 ecutwfc=1224.51225528 pbc="T T T" kpoints="3 3 3" timestamp=1470309135.58 degauss=0.136056917253 energy=-436064.161777
Fe     0.072224520      0.140220775      2.774218183      0.119983870     -1.014517954     -0.951828803       26
Fe     1.394843431      1.376633969      4.231855924      0.447503841      1.041163581      0.384943759       26
Fe    -0.038262021      0.097281455      5.616131285      0.313240836     -1.315736825      0.164659615       26
Fe     1.398510449      1.439188931      7.044320045      0.252541462      0.079819639      0.136639733       26
Fe    -0.077884760      0.002594546      8.462689837      0.545299604     -0.184586949     -0.060074339       26
Fe     1.446005757      1.448161605      9.786028947     -0.257504719     -0.249458709      0.626528465       26
Fe     0.104806329      3.047093738     -0.136926024     -0.600717161     -1.166666323      0.624780115       26
Fe     1.590139552      4.258421525      1.308079200     -0.985451119      0.419493986      1.437312465       26
Fe     0.109221112      2.829730436      2.624047516      0.412192825      0.194613994      0.928363373       26
Fe     1.288810901      4.287912478      4.411895478      0.918112642     -0.782635820     -1.630384311       26
Fe    -0.110577432      2.809303864      5.630868760      1.044077412      0.578603617     -0.115511950       26
Fe     1.373752924      4.252581657      7.064300257      0.280796342      0.052951355      0.280365168       26
Fe    -0.094897275      2.862444575      8.428789531      1.260276588     -0.188843410      0.887615246       26
Fe     1.501436175      4.410655721      9.995301585      0.059602798     -0.908166587     -1.206614838       26
Fe    -0.023136922      5.617719620      0.105832115      0.337748333      0.347259615     -0.525787246       26
Fe     1.544667764      7.145989828      1.495355575     -0.871666436     -0.627196695     -0.746436745       26
Fe     0.116719860      5.699199437      2.933209031     -0.559994744     -0.433022102     -1.174504331       26
Fe     1.445065795      7.092047707      4.263882994     -0.279637546      0.075928532      0.435614803       26
Fe    -0.067237440      5.697000200      5.698260200      0.287401764     -0.237209717      0.029358141       26
Fe     1.388496405      7.034309220      7.048701074      0.301461327      0.652902327      0.600296786       26
Fe    -0.080640221      5.575679594      8.460563401      0.618696885      1.337669620      0.506214209       26
Fe     1.497821408      7.044324352     10.049821987     -0.569558477      0.352108202     -0.704005058       26
Fe     0.012410919      8.403191321     -0.041636386      0.295947853      0.702098328      0.179054192       26
Fe     1.519641919      9.925001386      1.323455991     -1.312170191      0.053757910      0.470844572       26
Fe     0.106448831      8.582031933      2.803097033     -0.925100129     -0.315548915     -0.128074874       26
Fe     1.437788781     10.009882769      4.178453944     -0.160589558     -0.381418777      0.899247173       26
Fe     0.049301636      8.512558964      5.602987994     -0.555012204      0.282967125     -0.173503181       26
Fe     1.337957880      9.968751977      7.107487982      0.703978062      0.082484073     -0.185333855       26
Fe     0.004268093      8.485346951      8.475417858     -0.121503906     -0.370679022      0.870658820       26
Fe     1.371859036     10.055214577      9.921486577     -0.143089859     -0.192725519      0.554222618       26
Fe     2.981452136      0.007211637      0.143360393     -0.523309474      0.884223961     -0.898385854       26
Fe     4.355819407      1.477097977      1.564465572     -0.610458557     -0.497934486     -1.183483137       26
Fe     2.722838214      0.026626750      2.774776164      1.038888926      0.080207619     -0.113069659       26
Fe     4.184732113      1.367214006      4.182102181      0.657858385      0.577136803      0.685968513       26
Fe     2.945751258      0.074734398      5.725167590     -1.053024080     -0.681291162     -0.220091312       26
Fe     4.220906916      1.468488253      7.205571233      0.858488504     -0.031457704     -1.490993756       26
Fe     2.935942616      0.039436469      8.482266930     -1.365631652     -0.015517122      0.416683256       26
Fe     4.320929811      1.489899592      9.900837284     -0.862832640     -0.230284193      0.304784735       26
Fe     2.836509121      2.743127493      0.038519358      0.105927649      0.084068901     -0.140205596       26
Fe     4.251997221      4.279248326      1.400817465      0.555701516     -0.912297578      0.536808794       26
Fe     2.843829126      2.811414397      2.914550579     -0.907433566      0.028108328     -1.131814506       26
Fe     4.164092930      4.186289653      4.141813728      1.045838361      0.345852193      1.163052124       26
Fe     2.850980441      2.846759012      5.617639067     -0.360686173     -0.120668554      0.594094000       26
Fe     4.262295181      4.324154630      7.044799354     -0.484075983     -0.335488591      0.111214094       26
Fe     2.846179654      2.883866273      8.425327268     -0.226743784      0.585208781      0.894432783       26
Fe     4.317740470      4.345412388      9.945974027     -0.532853151     -0.111361418     -0.502505907       26
Fe     3.042593664      5.661194502      0.091158204     -1.183027024      1.069303019     -0.596856136       26
Fe     4.322319828      7.056579899      1.633616191     -0.323140868      0.383961598     -1.825285241       26
Fe     2.883083542      5.686074598      2.808424881     -0.818007514     -0.862620267      0.633688988       26
Fe     4.152256360      6.982359335      4.271818457      1.212777515      0.393710964      0.533526266       26
Fe     2.794424687      5.648465994      5.619455347      0.068696276     -0.046157472      0.668157453       26
Fe     4.206861192      7.036615339      7.027555844     -0.093629034      0.238947268      0.740154511       26
Fe     2.867801450      5.799723584      8.559958189      0.080423334     -0.787655641     -0.308999801       26
Fe     4.405485626      7.206755054     10.045843624     -1.368137192     -0.868941838     -0.289796232       26
Fe     2.862347745      8.566016868      0.059277269      0.411134559     -0.664956687     -0.340441564       26
Fe     4.289992385      9.844732514      1.433600244     -0.255454265      0.412983182      0.755402181       26
Fe     2.837846524      8.402036720      2.961278276      0.497743196      1.599631090     -0.619746924       26
Fe     4.278863297      9.807172874      4.381693179     -0.214483222      0.876174608     -1.210564824       26
Fe     2.826040227      8.647834484      5.731617838     -0.704006601     -1.354283060     -0.036584998       26
Fe     4.229310694      9.853747034      7.188135582      0.402390237      0.830238508     -0.529242037       26
Fe     2.825614360      8.550278340      8.627980095     -0.353194235     -0.619317550     -0.705275183       26
Fe     4.208818461      9.974446414      9.907478324      0.455903892     -0.679414257      0.480093087       26
Fe     5.650971123     -0.051935864     -0.122975656     -0.448322737      0.163097155      1.213890803       26
Fe     6.925449652      1.271550525      1.296626072      0.987284829      0.972774552      0.940781030       26
Fe     5.582748428     -0.085395568      2.919013647      0.738851733      0.055273832     -0.488218544       26
Fe     7.141311396      1.346765309      4.340326438     -0.197941002      0.564933319     -1.216729558       26
Fe     5.658654168      0.086328356      5.557486839     -0.071107713     -1.155051879      1.471946509       26
Fe     7.028295754      1.468102657      7.100859308      0.369136360     -0.419063326      0.188197806       26
Fe     5.678176562      0.008334128      8.561828218     -0.328954132     -0.144237600     -1.144864911       26
Fe     7.006205949      1.424068637      9.890301642      0.444907284      0.204050971      0.002824100       26
Fe     5.611704295      2.916834835     -0.052723367      0.412532982     -0.614097953      0.439948911       26
Fe     7.025287468      4.236046207      1.380773417      0.842942072     -0.438710154      0.146958598       26
Fe     5.766769870      2.847678390      2.793960078     -0.421726218     -0.388338901      0.740091776       26
Fe     7.219157914      4.203073417      4.227384730     -1.419410131     -0.447664535      0.283051971       26
Fe     5.685906010      2.810278826      5.655905984     -0.457472522      0.285835190     -0.335922593       26
Fe     6.957022655      4.282849594      7.138094897      1.457145697     -0.396011844     -1.135947297       26
Fe     5.637357262      2.953176140      8.467569421      0.033644941     -0.764048801      0.415429843       26
Fe     7.066166478      4.257848140      9.900609349     -0.238547719     -0.451395719     -0.171733491       26
Fe     5.704513763      5.775892906      0.071101179     -0.203824971     -0.977135657     -0.425205435       26
Fe     7.032884996      7.071346571      1.450544742      1.206151525     -0.384488417     -0.099664442       26
Fe     5.671649455      5.555475448      2.845144585      0.202410350      0.416146410      0.373809340       26
Fe     7.035262839      7.008233299      4.259480634      0.213565338      0.471439011     -0.278730461       26
Fe     5.688038430      5.594666969      5.614085528     -0.530491850      0.410532663      0.103064983       26
Fe     7.106546286      7.182725276      7.102675884     -0.714205396     -1.221471443     -0.253742938       26
Fe     5.697318255      5.717846463      8.491454935     -0.672700592      0.072133584      0.088368814       26
Fe     7.094912851      7.007913363      9.920607345      0.171189188      0.953186860     -0.042429629       26
Fe     5.755646766      8.533947430      0.133865623     -0.927550133     -0.448518141     -1.072292441       26
Fe     6.987247170      9.866120731      1.496219087      1.134288936      0.531624421     -0.168332435       26
Fe     5.703737016      8.372619724      2.882573358     -0.419604029      0.961814711      0.668827225       26
Fe     7.195934783      9.827867584      4.132067753     -0.760082617      0.387877645      0.977435962       26
Fe     5.526734776      8.422356227      5.741859693      1.351526324      0.221006368     -0.785811646       26
Fe     6.985695445      9.870939585      7.057701982      0.281589271      0.732771589     -0.002696830       26
Fe     5.607121219      8.388110528      8.526860188      0.466807169      1.051963242     -0.224344174       26
Fe     7.013419988      9.843693410      9.859661675      0.153111505      0.128977588      0.493064302       26
Fe     8.349212544     -0.088559487      0.007989403      0.343796854      0.616814838      0.179263480       26
Fe     9.998776712      1.524109237      1.270419976     -0.225119876     -0.925843435     -0.301025268       26
Fe     8.569719216      0.093228976      2.780615012     -0.718683229     -0.876734337     -0.667904199       26
Fe    10.021475310      1.386872174      4.086830905     -0.725361926      0.705853939      1.095579950       26
Fe     8.498589758      0.050734724      5.783628906      0.124585116     -0.883631836     -0.529145621       26
Fe    10.011989540      1.449252665      7.048754017     -1.489714118     -0.753802698      0.591951242       26
Fe     8.411671220     -0.002116166      8.617447320      0.586240565     -0.095079136     -1.344859967       26
Fe     9.963162939      1.250437791      9.958209070      0.031189024      0.899780420      0.305530355       26
Fe     8.431958765      2.700206625     -0.058221900      0.330161522      0.905423991      0.408643931       26
Fe     9.882606740      4.318007656      1.670683612      0.453870149     -0.789045837     -2.299351919       26
Fe     8.533609926      2.693349812      2.820245821     -0.424603025      0.946770672     -0.352152167       26
Fe     9.797931529      4.317570420      4.367768573      1.126605966     -0.835755581     -0.995839404       26
Fe     8.572156203      2.769545543      5.674225276     -0.865441538      0.415331627      0.227321254       26
Fe     9.881634362      4.260370713      7.120366706     -0.526937814      0.051211489     -0.935082694       26
Fe     8.550516713      2.789412966      8.497611690     -1.001670923     -0.073404737     -0.182548836       26
Fe     9.816190466      4.230721192      9.834715262      0.572597778     -0.080248242      0.896271121       26
Fe     8.399819813      5.537158355     -0.080090718      0.903904212      0.831601450      1.176895457       26
Fe     9.945083415      7.108421552      1.282664777     -0.244494680     -0.624460013      1.344640652       26
Fe     8.471553893      5.611527966      2.811537080     -0.237889774      0.880042576      0.037907316       26
Fe     9.967490991      6.939074519      4.194969071     -0.481096074      1.845632180     -0.005676481       26
Fe     8.397198257      5.730874030      5.623941934      0.588066305     -0.695850291      0.949264128       26
Fe     9.875783182      7.155761815      6.938980908      0.154174399     -0.749134089      1.427829979       26
Fe     8.397364124      5.617806646      8.421517992      0.827671005      0.747420963      0.318592587       26
Fe     9.875878992      6.949567533      9.982449033      0.113867215      0.817788970     -1.043970968       26
Fe     8.466986447      8.529024265     -0.033937052     -0.118621699     -0.749100664      0.302462771       26
Fe     9.946800067      9.946914680      1.323462610      0.494493321      0.344366353      0.358082931       26
Fe     8.594994951      8.389550631      2.720237616     -0.458079302      0.522781112      0.857168242       26
Fe     9.831174180     10.030928098      4.147794857      0.911212059     -1.001838816      0.676461859       26
Fe     8.426238905      8.444889252      5.657077361      0.632124471      0.820837013     -0.762357786       26
Fe     9.945914907      9.789980731      7.103088909     -0.543042690      1.509955384     -0.466915669       26
Fe     8.474135031      8.572328451      8.476520366      0.299655127     -1.029148302      0.536584079       26
Fe     9.858911837      9.991797465     10.092292766      0.902888369     -0.489257270     -1.294023345       26
126
Lattice="11.3344 0.0 0.0 0.0 11.3344 0.0 0.0 0.0 11.3344" Properties=species:S:1:pos:R:3:force:R:3:Z:I:1 config_type=doublevacancy_126_1NN_high config_name=doublevacancy_126_1NN_high_0002 ecutwfc=1224.51225528 pbc="T T T" kpoints="3 3 3" timestamp=1470309135.58 degauss=0.136056917253 energy=-436062.649525
Fe     0.052919781     -0.025619552      2.672712363      0.246804817      0.522864930      0.464368734       26
Fe     1.324440848      1.365351300      4.252457103      0.982182475      0.309041196     -0.033771182       26
Fe    -0.074269087     -0.038705412      5.746171049      1.076074276      0.660885345     -1.445218864       26
Fe     1.419720115      1.518128765      7.027914363     -0.383170984     -1.225022908      0.321040534       26
Fe    -0.069013779      0.046390214      8.571307449      0.407430113     -0.324525664     -0.641632411       26