1
Lattice="2.843877166 0.0 0.0 0.0 2.843877166 0.0 1.421938583 1.421938583 1.421938583" Properties=species:S:1:pos:R:3:force:R:3:Z:I:1 config_type=slice_sample_high degauss=0.136056917253 ecutwfc=1224.51225528 pbc="T T T" kpoints="34 34 47" energy=-3460.93269561 config_name=prim_0000 virial="-0.143221272502 -0.00030620885451 7.39124821231e-05 -0.00030620885451 -0.143221272502 6.33535561055e-05 7.39124821231e-05 6.33535561055e-05 -0.143875925916"
Fe      0.00000000       0.00000000       0.00000000       0.00000000       0.00000000       0.00000000       26 
1
Lattice="3.05632594 0.0 0.0 0.0 2.843877668 0.0 1.421937306 1.421937306 1.421937306" Properties=species:S:1:pos:R:3:force:R:3:Z:I:1 config_type=slice_sample_high degauss=0.136056917253 ecutwfc=1224.51225528 pbc="T T T" kpoints="31 34 47" energy=-3460.86842668 config_name=prim_0001 virial="-1.10468831818 -0.000272345064011 0.403649427997 -0.000272345064011 -0.664147481723 -7.94339770031e-05 0.403649427997 -7.94339770031e-05 -0.696965061937"
Fe      0.00000000       0.00000000       0.00000000       0.00000000       0.00000000       0.00000000       26 
1
Lattice="3.05632594 0.0 0.0 -0.07385306 2.843877668 0.0 1.421937306 1.421937306 1.421937306" Properties=species:S:1:pos:R:3:force:R:3:Z:I:1 config_type=slice_sample_high degauss=0.136056917253 ecutwfc=1224.51225528 pbc="T T T" kpoints="32 34 47" energy=-3460.8751619 config_name=prim_0002 virial="-1.11633106967 0.114827487614 0.234375623003 0.114827487614 -0.711501479728 0.0574648085063 0.234375623003 0.0574648085063 -0.720284608043"
Fe      0.00000000       0.00000000       0.00000000       0.00000000       0.00000000       0.00000000       26 
1
Lattice="3.05632594 0.0 0.0 -0.07385306 2.7694653 0.0 1.421937306 1.421937306 1.421937306" Properties=species:S:1:pos:R:3:force:R:3:Z:I:1 config_type=slice_sample_high degauss=0.136056917253 ecutwfc=1224.51225528 pbc="T T T" kpoints="32 35 47" energy=-3460.8879371 config_name=prim_0003 virial="-0.913745533418 0.079079445579 0.256345150796 0.079079445579 -0.253250929896 -0.0693879036879 0.256345150796 -0.0693879036879 -0.52736574929"
Fe      0.00000000       0.00000000       0.00000000       0.00000000       0.00000000       0.00000000       26 
1
Lattice="3.05632594 0.0 0.0 -0.07385306 2.7694653 0.0 1.540177387 1.421937306 1.421937306" Properties=species:S:1:pos:R:3:force:R:3:Z:I:1 config_type=slice_sample_high degauss=0.136056917253 ecutwfc=1224.51225528 pbc="T T T" kpoints="33 35 47" energy=-3460.88867127 config_name=prim_0004 virial="-0.916839754319 0.16010383001 -0.218098370311 0.16010383001 -0.271418426896 -0.166336474966 -0.218098370311 -0.166336474966 -0.535233911008"
Fe      0.00000000       0.00000000       0.00000000       0.00000000       0.00000000       0.00000000       26 
1
Lattice="3.05632594 0.0 0.0 -0.07385306 2.7694653 0.0 1.540177387 1.445752197 1.421937306" Properties=species:S:1:pos:R:3:force:R:3:Z:I:1 config_type=slice_sample_high degauss=0.136056917253 ecutwfc=1224.51225528 pbc="T T T" kpoints="33 35 47" energy=-3460.8852829 config_name=prim_0005 virial="-0.874084251951 0.187344024721 -0.244797076365 0.187344024721 -0.256599318941 -0.237580911194 -0.244797076365 -0.237580911194 -0.499517761188"
Fe      0.00000000       0.00000000       0.00000000       0.00000000       0.00000000       0.00000000       26 
1
Lattice="3.05632594 0.0 0.0 -0.07385306 2.7694653 0.0 1.540177387 1.445752197 1.457225645" Properties=species:S:1:pos:R:3:force:R:3:Z:I:1 config_type=slice_sample_high degauss=0.136056917253 ecutwfc=1224.51225528 pbc="T T T" kpoints="33 34 46" energy=-3460.86953146 config_name=prim_0006 virial="-1.001099322 0.159988801905 -0.242027372089 0.159988801905 -0.420532609975 -0.193646812753 -0.242027372089 -0.193646812753 -0.784122932418"
Fe      0.00000000       0.00000000       0.00000000       0.00000000       0.00000000       0.00000000       26 
1
Lattice="2.901785028 0.0 0.0 -0.073853331 2.769466533 0.0 1.540177538 1.445753453 1.457227111" Properties=species:S:1:pos:R:3:force:R:3:Z:I:1 config_type=slice_sample_high degauss=0.136056917253 ecutwfc=1224.51225528 pbc="T T T" kpoints="34 34 46" energy=-3460.88189237 config_name=prim_0007 virial="-0.383904067237 0.294185953383 -0.711734313315 0.294185953383 0.118631345895 -0.39923700472 -0.711734313315 -0.39923700472 -0.284110944673"
Fe      0.00000000       0.00000000       0.00000000       0.00000000       0.00000000       0.00000000       26 
1
Lattice="2.901785028 0.0 0.0 -0.30376466 2.769466533 0.0 1.540177538 1.445753453 1.457227111" Properties=species:S:1:pos:R:3:force:R:3:Z:I:1 config_type=slice_sample_high degauss=0.136056917253 ecutwfc=1224.51225528 pbc="T T T" kpoints="36 34 46" energy=-3460.73911764 config_name=prim_0008 virial="-0.284358250116 0.924137431851 -1.54154084718 0.924137431851 0.60389838764 -1.07391851119 -1.54154084718 -1.07391851119 0.41695697735"
Fe      0.00000000       0.00000000       0.00000000       0.00000000       0.00000000       0.00000000       26 
1
Lattice="2.901785028 0.0 0.0 -0.30376466 2.83224375 0.0 1.540177538 1.445753453 1.457227111" Properties=species:S:1:pos:R:3:force:R:3:Z:I:1 config_type=slice_sample_high degauss=0.136056917253 ecutwfc=1224.51225528 pbc="T T T" kpoints="36 34 46" energy=-3460.76872907 config_name=prim_0009 virial="-0.546607229726 0.796813448021 -1.33113798697 0.796813448021 0.15941107263 -0.816144665906 -1.33113798697 -0.816144665906 0.0250931963676"
Fe      0.00000000       0.00000000       0.00000000       0.00000000       0.00000000       0.00000000       26 
1
Lattice="2.901785028 0.0 0.0 -0.30376466 2.83224375 0.0 1.335204149 1.445753453 1.457227111" Properties=species:S:1:pos:R:3:force:R:3:Z:I:1 config_type=slice_sample_high degauss=0.136056917253 ecutwfc=1224.51225528 pbc="T T T" kpoints="33 34 46" energy=-3460.87592559 config_name=prim_0010 virial="-0.595111212714 0.69469227595 -0.244565197376 0.69469227595 -0.322736771862 -0.259981788658 -0.244565197376 -0.259981788658 -0.461431112696"
Fe      0.00000000       0.00000000       0.00000000       0.00000000       0.00000000       0.00000000       26 
1
Lattice="2.901785028 0.0 0.0 -0.30376466 2.83224375 0.0 1.335204149 1.263599701 1.457227111" Properties=species:S:1:pos:R:3:force:R:3:Z:I:1 config_type=slice_sample_high degauss=0.136056917253 ecutwfc=1224.51225528 pbc="T T T" kpoints="33 32 46" energy=-3460.85017804 config_name=prim_0011 virial="-0.419238915298 0.684366898479 0.253395099515 0.684366898479 -0.313401047183 0.722963357396 0.253395099515 0.722963357396 -0.330741963341"
Fe      0.00000000       0.00000000       0.00000000       0.00000000       0.00000000       0.00000000       26 
1
Lattice="2.901785028 0.0 0.0 -0.30376466 2.83224375 0.0 1.335204149 1.263599701 1.417611942" Properties=species:S:1:pos:R:3:force:R:3:Z:I:1 config_type=slice_sample_high degauss=0.136056917253 ecutwfc=1224.51225528 pbc="T T T" kpoints="34 32 48" energy=-3460.85282313 config_name=prim_0012 virial="-0.114064335537 0.790577203216 0.276020074076 0.790577203216 -0.0134249968207 0.78130272334 0.276020074076 0.78130272334 0.140572018503"
Fe      0.00000000       0.00000000       0.00000000       0.00000000       0.00000000       0.00000000       26 
1
Lattice="2.861969735 0.0 0.0 -0.303763744 2.832242455 0.0 1.335206188 1.263599706 1.417610883" Properties=species:S:1:pos:R:3:force:R:3:Z:I:1 config_type=slice_sample_high degauss=0.136056917253 ecutwfc=1224.51225528 pbc="T T T" kpoints="34 32 48" energy=-3460.85453078 config_name=prim_0013 virial="0.135404088783 0.778483831935 0.151398525327 0.778483831935 0.145775151529 0.791513600491 0.151398525327 0.791513600491 0.303261269128"
Fe      0.00000000       0.00000000       0.00000000       0.00000000       0.00000000       0.00000000       26 
1
Lattice="2.861969735 0.0 0.0 0.218107852 2.832242455 0.0 1.335206188 1.263599706 1.417610883" Properties=species:S:1:pos:R:3:force:R:3:Z:I:1 config_type=slice_sample_high degauss=0.136056917253 ecutwfc=1224.51225528 pbc="T T T" kpoints="31 32 48" energy=-3460.82127656 config_name=prim_0014 virial="0.140637097046 -0.189158478089 1.05663510174 -0.189158478089 0.346581293169 0.669972763435 1.05663510174 0.669972763435 0.407953085631"
Fe      0.00000000       0.00000000       0.00000000       0.00000000       0.00000000       0.00000000       26 
1
Lattice="2.861969735 0.0 0.0 0.218107852 2.877796428 0.0 1.335206188 1.263599706 1.417610883" Properties=species:S:1:pos:R:3:force:R:3:Z:I:1 config_type=slice_sample_high degauss=0.136056917253 ecutwfc=1224.51225528 pbc="T T T" kpoints="31 32 48" energy=-3460.81374853 config_name=prim_0015 virial="0.0131535792979 -0.134473104086 0.98346321499 -0.134473104086 0.0387746506281 0.826863796584 0.98346321499 0.826863796584 0.240570067665"
Fe      0.00000000       0.00000000       0.00000000       0.00000000       0.00000000       0.00000000       26 
1
Lattice="2.861969735 0.0 0.0 0.218107852 2.877796428 0.0 1.33639963 1.263599706 1.417610883" Properties=species:S:1:pos:R:3:force:R:3:Z:I:1 config_type=slice_sample_high degauss=0.136056917253 ecutwfc=1224.51225528 pbc="T T T" kpoints="32 32 48" energy=-3460.81459059 config_name=prim_0016 virial="0.01179212488 -0.137228173262 0.974651281671 -0.137228173262 0.0354728556617 0.826842356357 0.974651281671 0.826842356357 0.237793558262"
Fe      0.00000000       0.00000000       0.00000000       0.00000000       0.00000000       0.00000000       26 
1
Lattice="2.861969735 0.0 0.0 0.218107852 2.877796428 0.0 1.33639963 1.479326398 1.417610883" Properties=species:S:1:pos:R:3:force:R:3:Z:I:1 config_type=slice_sample_high degauss=0.136056917253 ecutwfc=1224.51225528 pbc="T T T" kpoints="31 34 48" energy=-3460.82014062 config_name=prim_0017 virial="-0.213340979306 -0.680705768754 1.16387200554 -0.680705768754 0.164017736967 -0.700623739687 1.16387200554 -0.700623739687 0.220094650828"
Fe      0.00000000       0.00000000       0.00000000       0.00000000       0.00000000       0.00000000       26 
1
Lattice="2.861969735 0.0 0.0 0.218107852 2.877796428 0.0 1.33639963 1.479326398 1.387116595" Properties=species:S:1:pos:R:3:force:R:3:Z:I:1 config_type=slice_sample_high degauss=0.136056917253 ecutwfc=1224.51225528 pbc="T T T" kpoints="32 34 49" energy=-3460.81076698 config_name=prim_0018 virial="0.0323076991444 -0.752192466864 1.2303464142 -0.752192466864 0.45540219427 -0.748626032543 1.2303464142 -0.748626032543 0.637017617317"
Fe      0.00000000       0.00000000       0.00000000       0.00000000       0.00000000       0.00000000       26 
1
Lattice="2.703201756 0.0 0.0 0.218107834 2.877798854 0.0 1.336398071 1.479327161 1.387118246" Properties=species:S:1:pos:R:3:force:R:3:Z:I:1 config_type=slice_sample_high degauss=0.136056917253 ecutwfc=1224.51225528 pbc="T T T" kpoints="33 34 49" energy=-3460.82647693 config_name=prim_0019 virial="1.18222751709 -0.816596473379 0.867174906019 -0.816596473379 0.897730025757 -0.642113265305 0.867174906019 -0.642113265305 1.16236272621"
Fe      0.00000000       0.00000000       0.00000000       0.00000000       0.00000000       0.00000000       26 
1
Lattice="2.703201756 0.0 0.0 -0.020246981 2.877798854 0.0 1.336398071 1.479327161 1.387118246" Properties=species:S:1:pos:R:3:force:R:3:Z:I:1 config_type=slice_sample_high degauss=0.136056917253 ecutwfc=1224.51225528 pbc="T T T" kpoints="35 34 49" energy=-3460.89754925 config_name=prim_0020 virial="1.1711111603 0.0622496165084 0.0205979552317 0.0622496165084 0.512640403848 -0.286171880189 0.0205979552317 -0.286171880189 0.842693161249"
Fe      0.00000000       0.00000000       0.00000000       0.00000000       0.00000000       0.00000000       26 
1
Lattice="2.703201756 0.0 0.0 -0.020246981 2.873043922 0.0 1.336398071 1.479327161 1.387118246" Properties=species:S:1:pos:R:3:force:R:3:Z:I:1 config_type=slice_sample_high degauss=0.136056917253 ecutwfc=1224.51225528 pbc="T T T" kpoints="35 34 49" energy=-3460.89614065 config_name=prim_0021 virial="1.19513081198 0.0625523041617 0.0203067489633 0.0625523041617 0.547599725332 -0.305610142581 0.0203067489633 -0.305610142581 0.866721323872"
Fe      0.00000000       0.00000000       0.00000000       0.00000000       0.00000000       0.00000000       26 
1
Lattice="2.703201756 0.0 0.0 -0.020246981 2.873043922 0.0 1.229516177 1.479327161 1.387118246" Properties=species:S:1:pos:R:3:force:R:3:Z:I:1 config_type=slice_sample_high degauss=0.136056917253 ecutwfc=1224.51225528 pbc="T T T" kpoints="34 34 49" energy=-3460.86863063 config_name=prim_0022 virial="1.20862248542 -0.0333730983937 0.692585758602 -0.0333730983937 0.734979682644 -0.29846865561 0.692585758602 -0.29846865561 0.990520286378"
Fe      0.00000000       0.00000000       0.00000000       0.00000000       0.00000000       0.00000000       26 
1
Lattice="2.703201756 0.0 0.0 -0.020246981 2.873043922 0.0 1.229516177 1.408952006 1.387118246" Properties=species:S:1:pos:R:3:force:R:3:Z:I:1 config_type=slice_sample_high degauss=0.136056917253 ecutwfc=1224.51225528 pbc="T T T" kpoints="34 34 49" energy=-3460.87016576 config_name=prim_0023 virial="1.19179745864 0.131553707361 0.70480146 0.131553707361 0.729183406515 0.238497969315 0.70480146 0.238497969315 0.979323384368"
Fe      0.00000000       0.00000000       0.00000000       0.00000000       0.00000000       0.00000000       26 
1
Lattice="2.703201756 0.0 0.0 -0.020246981 2.873043922 0.0 1.229516177 1.408952006 1.352355071" Properties=species:S:1:pos:R:3:force:R:3:Z:I:1 config_type=slice_sample_high degauss=0.136056917253 ecutwfc=1224.51225528 pbc="T T T" kpoints="34 34 50" energy=-3460.83752706 config_name=prim_0024 virial="1.5161205336 0.146019864773 0.755876044149 0.146019864773 1.0980227092 0.256793222761 0.755876044149 0.256793222761 1.59143523072"
Fe      0.00000000       0.00000000       0.00000000       0.00000000       0.00000000       0.00000000       26 
1
Lattice="2.81540902 0.0 0.0 -0.020248422 2.873043258 0.0 1.229514458 1.408951736 1.352356384" Properties=species:S:1:pos:R:3:force:R:3:Z:I:1 config_type=slice_sample_high degauss=0.136056917253 ecutwfc=1224.51225528 pbc="T T T" kpoints="33 34 50" energy=-3460.84720887 config_name=prim_0025 virial="0.63233887099 0.166222594306 1.02717528352 0.166222594306 0.771955806545 0.245718173395 1.02717528352 0.245718173395 1.17261754262"
Fe      0.00000000       0.00000000       0.00000000       0.00000000       0.00000000       0.00000000       26 
1
Lattice="2.647189936 0.0 0.0 0.0 2.843876148 0.0 1.421938074 1.421938074 1.421938074" Properties=species:S:1:pos:R:3:force:R:3:Z:I:1 config_type=slice_sample_high degauss=0.136056917253 ecutwfc=1224.51225528 pbc="T T T" kpoints="36 34 47" energy=-3460.86388401 config_name=prim_0026 virial="1.54226202822 0.000157258340194 -0.613189583002 0.000157258340194 0.821910715025 9.82864626213e-05 -0.613189583002 9.82864626213e-05 0.806086594543"
Fe      0.00000000       0.00000000       0.00000000       0.00000000       0.00000000       0.00000000       26 
1
Lattice="2.647189936 0.0 0.0 -0.030262675 2.843876148 0.0 1.421938074 1.421938074 1.421938074" Properties=species:S:1:pos:R:3:force:R:3:Z:I:1 config_type=slice_sample_high degauss=0.136056917253 ecutwfc=1224.51225528 pbc="T T T" kpoints="36 34 47" energy=-3460.85634836 config_name=prim_0027 virial="1.53781948011 0.0960553599198 -0.706748466771 0.0960553599198 0.87175178022 -0.0423024935122 -0.706748466771 -0.0423024935122 0.851485111627"
Fe      0.00000000       0.00000000       0.00000000       0.00000000       0.00000000       0.00000000       26 
1
Lattice="2.647189936 0.0 0.0 -0.030262675 2.888158341 0.0 1.421938074 1.421938074 1.421938074" Properties=species:S:1:pos:R:3:force:R:3:Z:I:1 config_type=slice_sample_high degauss=0.136056917253 ecutwfc=1224.51225528 pbc="T T T" kpoints="36 33 47" energy=-3460.86680774 config_name=prim_0028 virial="1.35221938115 0.0373614611621 -0.626281100106 0.0373614611621 0.556119809561 0.121646841353 -0.626281100106 0.121646841353 0.642960502083"
Fe      0.00000000       0.00000000       0.00000000       0.00000000       0.00000000       0.00000000       26 
1
Lattice="2.647189936 0.0 0.0 -0.030262675 2.888158341 0.0 1.467226199 1.421938074 1.421938074" Properties=species:S:1:pos:R:3:force:R:3:Z:I:1 config_type=slice_sample_high degauss=0.136056917253 ecutwfc=1224.51225528 pbc="T T T" kpoints="37 33 47" energy=-3460.84272335 config_name=prim_0029 virial="1.32230425983 0.0213907590891 -0.891235047497 0.0213907590891 0.727884710357 0.114030812802 -0.891235047497 0.114030812802 0.783213211351"
Fe      0.00000000       0.00000000       0.00000000       0.00000000       0.00000000       0.00000000       26 
1
Lattice="2.647189936 0.0 0.0 -0.030262675 2.888158341 0.0 1.467226199 1.579395578 1.421938074" Properties=species:S:1:pos:R:3:force:R:3:Z:I:1 config_type=slice_sample_high degauss=0.136056917253 ecutwfc=1224.51225528 pbc="T T T" kpoints="37 35 47" energy=-3460.78787432 config_name=prim_0030 virial="1.48816000086 0.483423170062 -1.03283528475 0.483423170062 0.801070452606 -1.12513596105 -1.03283528475 -1.12513596105 1.04326614954"
Fe      0.00000000       0.00000000       0.00000000       0.00000000       0.00000000       0.00000000       26 
1
Lattice="2.647189936 0.0 0.0 -0.030262675 2.888158341 0.0 1.467226199 1.579395578 1.513411722" Properties=species:S:1:pos:R:3:force:R:3:Z:I:1 config_type=slice_sample_high degauss=0.136056917253 ecutwfc=1224.51225528 pbc="T T T" kpoints="36 34 45" energy=-3460.81648464 config_name=prim_0031 virial="0.671010681008 0.357810036832 -0.787171457217 0.357810036832 -0.0821114541174 -0.881139087139 -0.787171457217 -0.881139087139 -0.0858935317038"
Fe      0.00000000       0.00000000       0.00000000       0.00000000       0.00000000       0.00000000       26 
1
Lattice="2.702122763 0.0 0.0 -0.030261073 2.888158511 0.0 1.467225639 1.579396159 1.513410321" Properties=species:S:1:pos:R:3:force:R:3:Z:I:1 config_type=slice_sample_high degauss=0.136056917253 ecutwfc=1224.51225528 pbc="T T T" kpoints="35 34 45" energy=-3460.84070181 config_name=prim_0032 virial="0.262658888433 0.30571061161 -0.641058593358 0.30571061161 -0.351332425063 -0.785525861914 -0.641058593358 -0.785525861914 -0.407180378303"
Fe      0.00000000       0.00000000       0.00000000       0.00000000       0.00000000       0.00000000       26 
1
Lattice="2.702122763 0.0 0.0 0.417434733 2.888158511 0.0 1.467225639 1.579396159 1.513410321" Properties=species:S:1:pos:R:3:force:R:3:Z:I:1 config_type=slice_sample_high degauss=0.136056917253 ecutwfc=1224.51225528 pbc="T T T" kpoints="33 34 45" energy=-3460.76218759 config_name=prim_0033 virial="0.175069778079 -1.03234128245 0.922098507178 -1.03234128245 -0.0641546585182 -1.17165752619 0.922098507178 -1.17165752619 0.0960367910476"
Fe      0.00000000       0.00000000       0.00000000       0.00000000       0.00000000       0.00000000       26 
1
Lattice="2.702122763 0.0 0.0 0.417434733 2.913517933 0.0 1.467225639 1.579396159 1.513410321" Properties=species:S:1:pos:R:3:force:R:3:Z:I:1 config_type=slice_sample_high degauss=0.136056917253 ecutwfc=1224.51225528 pbc="T T T" kpoints="33 34 45" energy=-3460.77128054 config_name=prim_0034 virial="0.0783704391063 -0.987889796691 0.84243846247 -0.987889796691 -0.202872667954 -1.06795585529 0.84243846247 -1.06795585529 -0.054423916046"
Fe      0.00000000       0.00000000       0.00000000       0.00000000       0.00000000       0.00000000       26 
1
Lattice="2.702122763 0.0 0.0 0.417434733 2.913517933 0.0 1.549086448 1.579396159 1.513410321" Properties=species:S:1:pos:R:3:force:R:3:Z:I:1 config_type=slice_sample_high degauss=0.136056917253 ecutwfc=1224.51225528 pbc="T T T" kpoints="33 34 45" energy=-3460.80670255 config_name=prim_0035 virial="0.101408985276 -0.88031094435 0.465223291998 -0.88031094435 -0.340228786522 -0.789786742283 0.465223291998 -0.789786742283 -0.238371282541"
Fe      0.00000000       0.00000000       0.00000000       0.00000000       0.00000000       0.00000000       26 
1
Lattice="2.702122763 0.0 0.0 0.417434733 2.913517933 0.0 1.549086448 1.583679024 1.513410321" Properties=species:S:1:pos:R:3:force:R:3:Z:I:1 config_type=slice_sample_high degauss=0.136056917253 ecutwfc=1224.51225528 pbc="T T T" kpoints="33 34 45" energy=-3460.80442782 config_name=prim_0036 virial="0.10774294455 -0.88424915737 0.478383487174 -0.88424915737 -0.338544106508 -0.817649599402 0.478383487174 -0.817649599402 -0.227738107386"
Fe      0.00000000       0.00000000       0.00000000       0.00000000       0.00000000       0.00000000       26 
1
Lattice="2.702122763 0.0 0.0 0.417434733 2.913517933 0.0 1.549086448 1.583679024 1.635300377" Properties=species:S:1:pos:R:3:force:R:3:Z:I:1 config_type=slice_sample_high degauss=0.136056917253 ecutwfc=1224.51225528 pbc="T T T" kpoints="32 32 41" energy=-3460.75642272 config_name=prim_0037 virial="-0.570944206809 -0.499642671531 0.314414711019 -0.499642671531 -1.08091803581 -0.667234376964 0.314414711019 -0.667234376964 -0.965939581951"
Fe      0.00000000       0.00000000       0.00000000       0.00000000       0.00000000       0.00000000       26 
1
Lattice="2.595669243 0.0 0.0 0.417432932 2.913516728 0.0 1.549087617 1.583677505 1.635300175" Properties=species:S:1:pos:R:3:force:R:3:Z:I:1 config_type=slice_sample_high degauss=0.136056917253 ecutwfc=1224.51225528 pbc="T T T" kpoints="34 32 41" energy=-3460.76955765 config_name=prim_0038 virial="0.110664416177 -0.397101986717 0.0835263128872 -0.397101986717 -0.858574646049 -0.606042672339 0.0835263128872 -0.606042672339 -0.622972761044"
Fe      0.00000000       0.00000000       0.00000000       0.00000000       0.00000000       0.00000000       26 
1
Lattice="2.595669243 0.0 0.0 0.099943649 2.913516728 0.0 1.549087617 1.583677505 1.635300175" Properties=species:S:1:pos:R:3:force:R:3:Z:I:1 config_type=slice_sample_high degauss=0.136056917253 ecutwfc=1224.51225528 pbc="T T T" kpoints="35 32 41" energy=-3460.76275277 config_name=prim_0039 virial="0.0685833237954 0.0470090994226 -0.51526060715 0.0470090994226 -0.798427979469 -0.522289262354 -0.51526060715 -0.522289262354 -0.804037277806"
Fe      0.00000000       0.00000000       0.00000000       0.00000000       0.00000000       0.00000000       26 
1
Lattice="2.595669243 0.0 0.0 0.099943649 2.767987937 0.0 1.549087617 1.583677505 1.635300175" Properties=species:S:1:pos:R:3:force:R:3:Z:I:1 config_type=slice_sample_high degauss=0.136056917253 ecutwfc=1224.51225528 pbc="T T T" kpoints="35 34 41" energy=-3460.75256523 config_name=prim_0040 virial="0.547323999692 0.207760030551 -0.72015350535 0.207760030551 -0.150898141511 -0.918625338886 -0.72015350535 -0.918625338886 -0.042956562732"
Fe      0.00000000       0.00000000       0.00000000       0.00000000       0.00000000       0.00000000       26 
1
Lattice="2.595669243 0.0 0.0 0.099943649 2.767987937 0.0 1.328113103 1.583677505 1.635300175" Properties=species:S:1:pos:R:3:force:R:3:Z:I:1 config_type=slice_sample_high degauss=0.136056917253 ecutwfc=1224.51225528 pbc="T T T" kpoints="33 34 41" energy=-3460.78028193 config_name=prim_0041 virial="0.785192459822 -0.121307520824 0.207436399993 -0.121307520824 -0.212528187439 -0.879573918221 0.207436399993 -0.879573918221 -0.293371100828"
Fe      0.00000000       0.00000000       0.00000000       0.00000000       0.00000000       0.00000000       26 
1
Lattice="2.595669243 0.0 0.0 0.099943649 2.767987937 0.0 1.328113103 1.444354959 1.635300175" Properties=species:S:1:pos:R:3:force:R:3:Z:I:1 config_type=slice_sample_high degauss=0.136056917253 ecutwfc=1224.51225528 pbc="T T T" kpoints="33 33 41" energy=-3460.82768743 config_name=prim_0042 virial="0.683799006001 -0.0183606403239 0.0910696390215 -0.0183606403239 -0.116140219581 -0.255150331928 0.0910696390215 -0.255150331928 -0.629849791982"
Fe      0.00000000       0.00000000       0.00000000       0.00000000       0.00000000       0.00000000       26 
1
Lattice="2.595669243 0.0 0.0 0.099943649 2.767987937 0.0 1.328113103 1.444354959 1.487456046" Properties=species:S:1:pos:R:3:force:R:3:Z:I:1 config_type=slice_sample_high degauss=0.136056917253 ecutwfc=1224.51225528 pbc="T T T" kpoints="34 34 45" energy=-3460.83953268 config_name=prim_0043 virial="1.87797423429 -0.284363143509 0.193569072878 -0.284363143509 0.953715518749 -0.446611058551 0.193569072878 -0.446611058551 0.580717031026"
Fe      0.00000000       0.00000000       0.00000000       0.00000000       0.00000000       0.00000000       26 
1
Lattice="2.970669084 0.0 0.0 0.099945191 2.767989244 0.0 1.328114851 1.444357133 1.4874556" Properties=species:S:1:pos:R:3:force:R:3:Z:I:1 config_type=slice_sample_high degauss=0.136056917253 ecutwfc=1224.51225528 pbc="T T T" kpoints="30 34 45" energy=-3460.80903144 config_name=prim_0044 virial="-0.824102641526 -0.331992619528 1.07167931812 -0.331992619528 -0.0822148620764 -0.456510908109 1.07167931812 -0.456510908109 -0.531123057219"
Fe      0.00000000       0.00000000       0.00000000       0.00000000       0.00000000       0.00000000       26 
1
Lattice="2.970669084 0.0 0.0 -0.038844469 2.767989244 0.0 1.328114851 1.444357133 1.4874556" Properties=species:S:1:pos:R:3:force:R:3:Z:I:1 config_type=slice_sample_high degauss=0.136056917253 ecutwfc=1224.51225528 pbc="T T T" kpoints="31 34 45" energy=-3460.85965305 config_name=prim_0045 virial="-0.887136656119 -0.0540724710965 0.618020831123 -0.0540724710965 -0.265185323463 -0.186103632609 0.618020831123 -0.186103632609 -0.801912152869"
Fe      0.00000000       0.00000000       0.00000000       0.00000000       0.00000000       0.00000000       26 
1
Lattice="2.970669084 0.0 0.0 -0.038844469 2.857341029 0.0 1.328114851 1.444357133 1.4874556" Properties=species:S:1:pos:R:3:force:R:3:Z:I:1 config_type=slice_sample_high degauss=0.136056917253 ecutwfc=1224.51225528 pbc="T T T" kpoints="31 33 45" energy=-3460.84554435 config_name=prim_0046 virial="-1.11307835471 0.0255962694857 0.522231134086 0.0255962694857 -0.7952580086 -0.00695550801242 0.522231134086 -0.00695550801242 -1.03986004037"
Fe      0.00000000       0.00000000       0.00000000       0.00000000       0.00000000       0.00000000       26 
1
Lattice="2.970669084 0.0 0.0 -0.038844469 2.857341029 0.0 1.567212123 1.444357133 1.4874556" Properties=species:S:1:pos:R:3:force:R:3:Z:I:1 config_type=slice_sample_high degauss=0.136056917253 ecutwfc=1224.51225528 pbc="T T T" kpoints="33 33 45" energy=-3460.85541555 config_name=prim_0047 virial="-1.11169884562 0.0750963015074 -0.35641182307 0.0750963015074 -0.854565306919 -0.0821097720866 -0.35641182307 -0.0821097720866 -1.07645760503"
Fe      0.00000000       0.00000000       0.00000000       0.00000000       0.00000000       0.00000000       26 
1
Lattice="2.970669084 0.0 0.0 -0.038844469 2.857341029 0.0 1.567212123 1.297133743 1.4874556" Properties=species:S:1:pos:R:3:force:R:3:Z:I:1 config_type=slice_sample_high degauss=0.136056917253 ecutwfc=1224.51225528 pbc="T T T" kpoints="33 31 45" energy=-3460.83881321 config_name=prim_0048 virial="-1.0293804083 -0.111972086487 -0.391467583452 -0.111972086487 -0.858193763599 0.467688358755 -0.391467583452 0.467688358755 -1.03247560936"
Fe      0.00000000       0.00000000       0.00000000       0.00000000       0.00000000       0.00000000       26 
1
Lattice="2.970669084 0.0 0.0 -0.038844469 2.857341029 0.0 1.567212123 1.297133743 1.334305726" Properties=species:S:1:pos:R:3:force:R:3:Z:I:1 config_type=slice_sample_high degauss=0.136056917253 ecutwfc=1224.51225528 pbc="T T T" kpoints="35 33 50" energy=-3460.85946161 config_name=prim_0049 virial="0.0449130085323 -0.190789295564 -0.522005835217 -0.190789295564 0.152708388584 0.614587570564 -0.522005835217 0.614587570564 0.855946896342"
Fe      0.00000000       0.00000000       0.00000000       0.00000000       0.00000000       0.00000000       26 
1
Lattice="2.87667557 0.0 0.0 -0.03884375 2.857341433 0.0 1.56721285 1.297133288 1.33430569" Properties=species:S:1:pos:R:3:force:R:3:Z:I:1 config_type=slice_sample_high degauss=0.136056917253 ecutwfc=1224.51225528 pbc="T T T" kpoints="36 33 50" energy=-3460.82069723 config_name=prim_0050 virial="0.657937729064 -0.301674372672 -0.932866419988 -0.301674372672 0.727198572085 0.818593077939 -0.932866419988 0.818593077939 1.36581214329"
Fe      0.00000000       0.00000000       0.00000000       0.00000000       0.00000000       0.00000000       26 
1
Lattice="2.87667557 0.0 0.0 -0.091210752 2.857341433 0.0 1.56721285 1.297133288 1.33430569" Properties=species:S:1:pos:R:3:force:R:3:Z:I:1 config_type=slice_sample_high degauss=0.136056917253 ecutwfc=1224.51225528 pbc="T T T" kpoints="37 33 50" energy=-3460.80730379 config_name=prim_0051 virial="0.677936570913 -0.168157432047 -1.06100602851 -0.168157432047 0.82642746815 0.760137248666 -1.06100602851 0.760137248666 1.39481348494"
Fe      0.00000000       0.00000000       0.00000000       0.00000000       0.00000000       0.00000000       26 
1
Lattice="2.87667557 0.0 0.0 -0.091210752 2.873531363 0.0 1.56721285 1.297133288 1.33430569" Properties=species:S:1:pos:R:3:force:R:3:Z:I:1 config_type=slice_sample_high degauss=0.136056917253 ecutwfc=1224.51225528 pbc="T T T" kpoints="37 33 50" energy=-3460.80737059 config_name=prim_0052 virial="0.620590678899 -0.19305037633 -1.03845972776 -0.19305037633 0.713414460541 0.812699247276 -1.03845972776 0.812699247276 1.32622762861"
Fe      0.00000000       0.00000000       0.00000000       0.00000000       0.00000000       0.00000000       26 
1
Lattice="2.87667557 0.0 0.0 -0.091210752 2.873531363 0.0 1.505355696 1.297133288 1.33430569" Properties=species:S:1:pos:R:3:force:R:3:Z:I:1 config_type=slice_sample_high degauss=0.136056917253 ecutwfc=1224.51225528 pbc="T T T" kpoints="36 33 50" energy=-3460.84467563 config_name=prim_0053 virial="0.590969299748 -0.0422294533544 -0.577996654725 -0.0422294533544 0.512657462148 0.757760450047 -0.577996654725 0.757760450047 1.22923153647"
Fe      0.00000000       0.00000000       0.00000000       0.00000000       0.00000000       0.00000000       26 
1