130
Lattice="11.3344 0.0 0.0 0.0 11.3344 0.0 0.0 0.0 11.3344" Properties=species:S:1:pos:R:3:force:R:3:Z:I:1 config_type=self_di_interstitial_npc_130_high config_name=self_di_interstitial_npc_130_high_0000 ecutwfc=1224.51225528 pbc="T T T" kpoints="3 3 3" timestamp=1474628705.75 degauss=0.136056917253 energy=-449900.696439
Fe     0.063676058      2.698309167      2.847267632      1.968388984      1.034145755      0.610535947       26
Fe     1.635038069      1.421820742      1.529422633      0.569610670      0.126034447     -0.160363301       26
Fe    10.043927340     10.076915261     10.175759458      0.119220252     -1.682180469     -0.577607315       26
Fe     0.112717842     11.306902281      0.192017045      0.797919485     -0.600400401      0.952264605       26
Fe     9.852116694      0.838044499      2.350127960     -0.397745796     -0.356154347     -0.513046401       26
Fe     1.648215952      1.516367615      4.417658442      0.430250967     -0.651667940     -0.873316570       26
Fe    10.298017113      1.296335685      4.490189705      0.156862487      0.310075036      0.401438929       26
Fe     1.653349359      1.474766638      7.246224665     -0.147746898      0.000343756      0.580733262       26
Fe     0.320433655      0.023468725      8.782256875     -0.567860006     -0.567020284     -1.115293369       26
Fe     1.663684155      1.355309361     10.224486327     -0.026148119     -0.058930455     -1.166926262       26
Fe     0.743999378      3.191221175     11.193507208     -1.067761386      0.008628622      0.826721753       26
Fe     1.731813964      4.378627212      1.597607936     -0.168592888     -1.206064622      0.326512099       26
Fe     8.675955969      0.113388136      0.141460215     -0.523823694     -0.949900733      0.897903772       26
Fe     1.683410386      4.389194715      4.431709948     -0.220691151     -1.023877540     -1.301889892       26
Fe     0.332008344      2.761310761      5.826186416     -0.459751547      0.916475878      0.310746351       26
Fe     1.680555126      4.385611639      7.228891965     -0.217168225     -0.912751635     -0.215597024       26
Fe     0.308119849      2.832646278      8.774958983      0.049271849      0.046510227     -0.368003532       26
Fe     1.826972384      4.539790184      9.893436873     -0.509477710     -0.240851170      0.188076450       26
Fe     0.264857045      5.805096260      0.085348916      0.559414446     -0.639017599     -0.639053594       26
Fe     1.628795920      6.935923907      1.511925800      0.444465568      2.381564227      0.705756237       26
Fe     0.183243551      5.788673757      2.947119060      0.832257338     -1.306288793      0.893915734       26
Fe     1.804580450      6.969188377      4.340819995     -0.693210025      1.225407545      0.539493797       26
Fe     0.213355946      5.670692831      5.743676223      0.526101692      0.399600076      0.961753775       26
Fe     1.595433794      7.159618266      7.103080442     -0.237320017     -0.626208877      0.891486556       26
Fe     0.164993977      5.691304132      8.629438617      0.358273450      0.664297970     -0.015574457       26
Fe     1.451673285      7.200058952      9.929647005      1.234752733     -0.678728287      0.507432655       26
Fe     0.172545985      8.623030351      0.111532094      0.073925385     -0.993966612      0.391204910       26
Fe     1.724942167      9.713416372      1.528765975     -0.661631222      0.476307652      0.648444548       26
Fe     0.276010503      8.351032282      3.144788582      0.704357557      0.910504234     -0.812390939       26
Fe     0.598923615     11.286606247      2.945243625     -1.215918889     -0.559246553      0.584775293       26
Fe     0.266423278      8.561496891      5.829879946      0.246761365     -0.570296897     -0.130668860       26
Fe     0.330696988     11.233934871      5.834356943     -0.766766971      0.722916036     -0.227084713       26
Fe     0.041843431      8.525066735      8.627139241      1.571624835      0.631075204      0.766777770       26
Fe     1.628077704      9.873394514     10.134928132     -0.850815304      0.287413591     -0.812475014       26
Fe     2.928930544     11.146147993      0.167865037      1.318683567      1.559060882      0.201448758       26
Fe     4.547017258      1.631859982      1.527450856     -0.439721626     -1.547644928     -0.486705964       26
Fe     3.139139313      0.002074354      2.940186045     -0.033451080      0.036779116      0.079794185       26
Fe     4.406677993      1.516732231      4.546146595     -0.196040442     -0.984716554     -1.224795622       26
Fe     2.924761967      0.059006739      5.860139325      2.138894773      0.039076397     -0.882251410       26
Fe     4.373963979      1.563436340      7.140893406      0.613193953     -0.896660386      0.938960946       26
Fe     2.984320181      0.009944542      8.642359787      0.548912776      0.185028922      0.185900269       26
Fe     4.389801650      1.444950377      9.957907541      0.002948798     -0.427093396      0.920237916       26
Fe     3.110610424      2.886157919      0.095007230      0.307670541      0.154554408      0.176369961       26
Fe     4.519801834      4.267252507      1.493452133      0.120166161      0.321607205      0.207804010       26
Fe     3.167063489      2.745370129      2.870070597     -1.274142033      1.443483112      0.978646180       26
Fe     4.497017015      4.111715149      4.353672218      0.279865346      1.911431337      0.071994487       26
Fe     2.982862464      2.965029792      5.718827478      0.449103838     -0.579100612      1.131211068       26
Fe     4.577397837      4.131928238      7.252744847     -0.280225300      1.026632992     -0.354591373       26
Fe     3.039229308      2.882476449      8.714347475     -0.182625712     -0.117734926     -0.929442722       26
Fe     4.546053676      4.266734786      9.942535000     -0.793862027      0.470294099      1.464941796       26
Fe     2.978697378      5.717515204      0.191065420      1.558112917     -0.235711021     -1.206621523       26
Fe     4.563270731      7.084086017      1.536081061     -0.909791267     -0.355723687     -0.023177466       26
Fe     3.151681892      5.684657912      2.885528542      0.300598465     -0.319858084      1.065189768       26
Fe     4.573514989      7.185291906      4.430327581     -0.532369527     -1.255141581     -0.530339384       26
Fe     3.130495847      5.700116208      5.838056695      0.149603749     -0.319295269     -0.550357221       26
Fe     3.139314837      8.486499592      5.808437222     -0.959766827     -0.019468393     -0.350889242       26
Fe     3.143713514      5.702561548      8.497410074     -0.228679311      0.542278815      0.902180545       26
Fe     4.473198510      7.114380148     10.083727496     -1.076314417     -0.710353112     -0.937492075       26
Fe     3.029220126      8.332241865      0.089328957     -0.570518012      0.660340528      0.195796445       26
Fe     4.485806999      9.798381879      1.424496556     -1.069626207      0.175844170     -0.264709207       26
Fe     3.163737896      8.443313884      2.922052286     -0.586775612     -0.091541298      0.289645308       26
Fe     4.525227396      9.849248808      4.444444769      0.019257562      1.063243700      0.021394149       26
Fe     1.818137355      9.851854983      4.385703017     -0.689877618      0.008863878     -0.162463635       26
Fe     4.366406088      9.808071873      7.299695128      0.344503393      0.730767414      0.451841549       26
Fe     1.756767700     10.017649350      7.142968996     -1.845866664     -1.198014498      1.115904006       26
Fe     4.304402409      9.852098763     10.045603256      1.029733485      0.397434950     -0.421108125       26
Fe     5.737639533      0.149313571      0.080419982      0.496526550     -1.122691204     -0.147366632       26
Fe     7.228314897      1.426199199      1.628535954      0.673829564     -0.504822471      0.055536856       26
Fe     5.614227854     11.218425728      2.673415391      1.201275428      0.343833877      0.958520613       26
Fe     6.525895255      0.709856561      4.509380794      1.004622292      0.143475782     -1.191706811       26
Fe     5.786916132     11.142698142      6.229482605     -0.030519508      0.141585250     -0.217744924       26
Fe     7.350332388      1.442174310      7.252432233     -0.315441443      0.188703028     -0.160964425       26
Fe     5.873051780     -0.003548563      8.684859072     -0.546005887     -0.409151467     -0.265706024       26
Fe     7.230633824      1.371066002      9.976033354      0.786625400     -0.048892097      0.442503816       26
Fe     5.952033211      2.876963578      0.085533383     -0.619177682      0.192735289      0.082364003       26
Fe     7.253644379      4.348763403      1.544326202     -0.255357848      0.358632376     -0.335040448       26
Fe     6.095010966      2.978509114      3.024690163     -0.911987760     -0.954579883     -0.119683051       26
Fe     7.437748970      4.445260438      4.424607098     -0.218327793     -0.834181038      0.475046526       26
Fe     6.030670995      2.802207917      5.680510054      0.037610096      0.509760274      1.201309881       26
Fe     7.302445602      4.247840828      7.390362870      0.158542189     -0.075393742     -1.063873620       26
Fe     5.908393459      2.794440407      8.746111088      0.048178616      0.195073193     -1.481254160       26
Fe     7.292156392      4.310797878      9.987903962      0.425470258     -0.606391329      1.276732677       26
Fe     5.884319284      5.750945926      0.149859300      0.382392197     -0.661890389      0.029063750       26
Fe     7.410124827      7.082799483      1.779098406     -0.466110914     -0.367963166     -2.138340443       26
Fe     5.878745616      5.722485259      2.948545245      0.048700807     -0.496633250      0.715417157       26
Fe     7.245129218      7.111589505      4.359850985      0.499222094     -0.983727965      1.277839022       26
Fe     5.848034073      5.706311693      5.891932476      0.552689983     -0.798251672     -0.230706369       26
Fe     4.354306571      7.128798355      7.253473184      1.091126285     -0.582649248      0.491176084       26
Fe     5.943645529      5.789710481      8.880971916     -0.439333903     -0.567228029     -2.782307158       26
Fe     7.489989299      7.010196190     10.034778201     -1.625339036      1.128187194      1.189664584       26
Fe     5.765587398      8.392764432      0.044079380      1.493988319      0.576216605      0.407690566       26
Fe     7.243209409      9.884964148      1.310954873     -0.168170456      0.274747308      1.568367247       26
Fe     5.832224058      8.534579300      2.842441410      0.843283771     -0.101918271      0.734214492       26
Fe     7.111919506      9.628678652      4.627969674      0.062315312      0.998484297     -0.179504907       26
Fe     5.858165848      8.324543200      6.041297698      0.416102958      1.385532762     -0.757615130       26
Fe     7.491400942      9.817250935      7.363795150     -1.474867540      0.131295438     -0.820910032       26
Fe     2.820134914      8.568847465      8.588173319      1.367184085     -1.031033692      0.515654271       26
Fe     5.887685658      8.429603839      8.613025646     -0.034878814      0.383073282      0.767375551       26
Fe     7.153480801      9.824277504     10.112588914      0.753342470      0.898625480     -0.491923247       26
Fe    10.528737915      1.994761549      0.733678920     -0.034879071      0.895139065     -0.182725471       26
Fe     8.341457650     10.969339389      3.217998389     -1.046111412      0.144048881     -0.066210019       26
Fe     8.166692423      2.086349020      4.267583755     -0.795548157     -0.590397525     -1.178449689       26
Fe     8.671530838      0.084504832      5.762474983      0.333146573     -1.011027938      0.401954178       26
Fe    10.203227039      1.379024224      7.344079641      0.871089994      0.059072123     -0.985131016       26
Fe     8.763033880      0.021711667      8.475055305     -0.417348401     -0.533833256      1.835725205       26
Fe    10.040513192      1.259905574     10.032322954      0.753413176      1.401958768     -0.549285586       26
Fe     8.476230954      2.760568573      0.122495225      0.635492102      0.764509543     -0.282521038       26
Fe    10.416120757      4.405439155      1.352269815     -0.505338234     -0.399472549      0.574658003       26
Fe     8.915986893      3.214925679      2.493801058      0.141938776     -1.218933507      0.680065003       26
Fe    10.303665509      4.144237317      4.359697869     -0.872651683      0.125366217      0.355791564       26
Fe     8.921620214      2.892555859      6.063848586     -0.384845286      0.121184575      0.342767384       26
Fe    10.360908015      4.183893674      7.265306241     -0.543492376      0.397816244      0.662834755       26
Fe     8.956858422      2.859750388      8.757886645     -1.775745226     -0.149684224     -0.577555893       26
Fe    10.122007868      4.355618097     10.135747790      0.673892556     -1.173361219     -0.159941640       26
Fe     8.722801169      5.608001324      0.228169769     -0.044926170      0.586876913      0.132210750       26
Fe    10.335305045      7.146958897      1.522342600     -2.116034581     -0.008037268      0.693795722       26
Fe     8.906526239      5.595893215      3.069726790     -0.271610048      1.271108132     -0.630860774       26
Fe    10.126165348      7.136716861      4.636531328      0.441692633     -0.932024367     -1.731167954       26
Fe     8.947157853      5.495444136      5.941837408     -1.323710587      1.188933362     -0.191854172       26
Fe    10.033170972      7.166526718      7.468742910      0.911439858     -0.993704360     -1.854130447       26
Fe     8.728164210      5.645674728      8.705242665      0.653786272     -0.270104153     -0.328897054       26
Fe    10.072943211      7.046546949     10.240179268      0.279697453      0.746462713     -1.147155764       26
Fe     8.641657145      8.448756119      0.221788762      0.885885922      0.240942187     -0.079147039       26
Fe    10.162069384      9.730417496      1.843003034     -0.312217794      1.042661248     -1.586256212       26
Fe     8.638905550      8.443514968      3.111805727      0.784141200     -0.009006317     -0.411079280       26
Fe    10.178026904      9.852422791      4.367053044     -0.055869299      0.950793677      0.767790527       26
Fe     8.759504280      8.433935019      5.839620604     -0.398627942      0.423292020      0.805085664       26
Fe    10.226894241      9.849678155      7.221691787     -0.728093209      1.375412643     -0.096065154       26
Fe     7.386286102      7.019744901      7.241399929     -0.078108056     -0.094877562      0.480843849       26
Fe     8.760777960      8.564520841      8.831873098     -0.320594448     -0.240088581     -0.629917951       26
130
Lattice="11.3344 0.0 0.0 0.0 11.3344 0.0 0.0 0.0 11.3344" Properties=species:S:1:pos:R:3:force:R:3:Z:I:1 config_type=self_di_interstitial_npc_130_high config_name=self_di_interstitial_npc_130_high_0001 ecutwfc=1224.51225528 pbc="T T T" kpoints="3 3 3" timestamp=1474628705.76 degauss=0.136056917253 energy=-449906.983426
Fe     0.213411213      2.948316471      2.956009763     -0.043279636     -0.949422765     -0.000813240       26
Fe     1.646405271      1.403483689      1.605938663     -0.134462780      0.396392625     -0.659191502       26
Fe    10.190073263      9.959596174     10.012850773      0.108143683     -0.304617356      0.462898321       26
Fe     0.258438261     11.452032087      0.022188788     -0.263769212     -0.614486704      1.032989016       26
Fe     9.965551381      0.854704934      2.541365255     -0.681482966     -0.390895092     -0.955864921       26
Fe     1.625015240      1.491137955      4.420341193      0.352187134     -0.477368746      0.230977620       26
Fe    10.345251117      1.442100070      4.568086230     -0.576240517      0.554891876      0.312917905       26
Fe     1.606983921      1.473553596      7.237275499      0.544470167     -0.865814348      0.162031433       26
Fe     0.310670611      0.031013129      8.697002499     -0.302817069     -0.153513882     -0.730478936       26
Fe     1.751250046      1.500522430     10.042530375     -0.334707747     -1.013659977     -0.173582628       26
Fe     0.575275942      2.999889771     11.314141392     -0.671779623     -0.147760782      0.682980634       26
Fe     1.641039464      4.228371934      1.744251281      0.713306281      1.124443925     -1.646152630       26
Fe     8.765889559      0.081932966      0.066784563      0.295422320     -0.893964328      0.872393030       26
Fe     1.740857342      4.311689873      4.404560285     -0.920785304     -0.165490338      0.281502110       26
Fe     0.288902057      2.820649711      5.875009412      0.056805695      1.141278480     -0.278916095       26
Fe     1.762871399      4.265608929      7.226323681     -0.412571548      0.250070118      0.306437697       26
Fe     0.216016458      2.783110915      8.638531390      0.790131614      0.970454645      0.144884232       26
Fe     1.792465325      4.374925578     10.036043211      0.135991558     -0.562443720     -0.378231381       26
Fe     0.356644728      5.709796047      0.035047416     -0.125266201      0.257434785      1.225629945       26
Fe     1.620656835      7.179945129      1.586706464      0.314407602     -1.221955325      0.007777587       26
Fe     0.172402061      5.773894074      2.997125492      0.655393983     -0.455894121      0.055850273       26
Fe     1.625626935      7.087586408      4.437197282      0.255815762     -0.242791582      0.336420873       26
Fe     0.251844848      5.744498624      5.873217557      0.214169033     -0.464423242     -0.398391143       26
Fe     1.658290148      7.109105390      7.262983245      0.453619724     -0.417525292     -0.288787845       26
Fe     0.330856180      5.642831153      8.673353783     -0.327964258      0.255639384     -0.667589496       26
Fe     1.650596528      7.097588903      9.987109511      0.859693580     -0.288627151      1.064088050       26
Fe     0.338796437      8.586456078      0.099436181     -0.792284912     -0.560889231      0.131592400       26
Fe     1.665464472      9.918434235      1.539464402     -0.292246750     -0.031545121      0.292860730       26
Fe     0.272725839      8.441489760      3.073674822     -0.811665374      1.034280995     -0.520365304       26
Fe     0.499841497     11.305533788      3.050897937     -0.796207902     -0.571995111      0.027782826       26
Fe     0.276845939      8.553839937      5.867410955     -0.739468284     -0.904125841      0.085430558       26
Fe     0.115670556     11.255507589      5.866312266      1.527430143      0.449818348     -0.161667622       26
Fe     0.347470075      8.455515536      8.677863152     -1.349035953      0.474710225     -0.539256741       26
Fe     1.688059644      9.853675548      9.982473821      0.230206803      1.098737007      1.164622039       26
Fe     2.966579794     11.297607914      0.190877167      0.975887901      0.231078150     -0.738297918       26
Fe     4.473881827      1.389404755      1.484064178      0.329355224      0.003926589      0.833567573       26
Fe     3.060956174     -0.007216034      3.084472787     -0.041338196     -0.209369298     -0.744311985       26
Fe     4.389400865      1.255575539      4.533532303     -0.029913756      1.357098418     -1.065864426       26
Fe     2.994954410      0.000790540      5.862426176     -0.303650364     -0.432408637      0.337808240       26
Fe     4.394422435      1.388683457      7.257232465      0.588004856      0.207247881      0.220364363       26
Fe     3.122834098     -0.027986900      8.629065534     -0.581181920      0.031196223      0.505025588       26
Fe     4.485732815      1.372299627     10.061857545      0.265393892      0.107481881      0.256559582       26
Fe     3.177752462      2.821756005      0.113068143     -0.833792287      0.152285924      0.644622346       26
Fe     4.466487990      4.236713202      1.569604283     -0.091012165     -0.279156493      0.213804965       26
Fe     3.053096267      2.738810243      2.925871571      0.576852439      0.469854697      0.780273233       26
Fe     4.437698126      4.180746542      4.350768186      0.788724449     -0.340434622      0.440461589       26
Fe     3.018193319      2.844440243      5.812218015      0.727665378     -0.179914741      0.057585254       26
Fe     4.613979137      4.199455737      7.155996778     -1.075169248     -0.000600610      0.641561448       26
Fe     3.070766188      2.791927231      8.659301836      0.563347977      0.836365447     -0.350633417       26
Fe     4.456319526      4.249929180     10.140660947      0.759870244      0.109778133     -0.877721641       26
Fe     3.105681207      5.715774886      0.210322611     -0.646514164     -0.372318358      0.094521464       26
Fe     4.402759226      7.109464668      1.632297173      0.460205861     -0.120273633     -0.165045023       26
Fe     3.135334717      5.686593181      3.065438363     -1.269759845      0.008107974     -0.685356333       26
Fe     4.409704403      7.078319312      4.436510089      0.707231279      0.723408659     -0.170915108       26
Fe     3.174783892      5.680422144      5.852160622     -1.038938548     -0.144731766     -0.000247597       26
Fe     3.048392128      8.497503548      5.839274610      0.041099083     -0.027619561      0.362749997       26
Fe     3.200809273      5.679879340      8.676757628     -1.023012107     -0.314576010     -0.585022891       26
Fe     4.443627582      7.101797479     10.082103832      0.436502090     -0.074858696      0.362798591       26
Fe     3.095257061      8.385349955      0.214269941     -0.538172764      1.380863639     -0.791463702       26
Fe     4.370867319      9.910488151      1.573660955      0.166741437     -0.534105022     -0.709625747       26
Fe     2.964840508      8.527467474      3.056496802      0.829396986     -0.094352800     -0.160312650       26
Fe     4.453006707      9.929376748      4.485711359     -0.043248268     -0.474208603     -0.232139244       26
Fe     1.588822926      9.866009574      4.467763166      0.682564887      0.472662342      0.180067207       26
Fe     4.498397862      9.785862694      7.356809895     -0.960320385      0.255546310     -0.124009446       26
Fe     1.671695978      9.951638586      7.261425309      0.036369796     -0.325827928      0.021583896       26
Fe     4.537774644      9.922074685     10.097250705     -0.420363019     -0.453083906      0.458068246       26
Fe     5.981750886      0.063072864      0.163610749     -0.119031019     -0.729457951     -0.200451170       26
Fe     7.452193507      1.428000087      1.607968756     -0.553777046      0.104845729     -0.401068947       26
Fe     5.814775395     11.118263737      2.790009462     -0.584398884      0.338675988     -1.327261538       26
Fe     6.585274930      0.725567218      4.427342577      0.448710716      0.592285486      0.425992706       26
Fe     5.699580205     11.152272933      6.119669622      0.936507600      0.457417500      0.421710534       26
Fe     7.276984051      1.479453186      7.296821155      0.637848518     -1.033908442     -0.154515327       26
Fe     5.913143933     -0.050296071      8.756115158      0.435142491      0.137700056     -0.524494495       26
Fe     7.440313503      1.434054663     10.029970942     -1.260284816     -0.218697774     -0.290635183       26
Fe     5.926936753      2.869666809      0.129518121     -0.330384180     -0.879164030     -0.033022477       26
Fe     7.222344626      4.298010997      1.446384235      0.620882580      0.141370562      1.206055366       26
Fe     6.015750912      2.796813105      2.951660629     -0.951327438     -0.324555232      0.399347851       26
Fe     7.263367866      4.279580764      4.443618571      0.544558870      0.249483392     -0.652912097       26
Fe     5.957652603      2.670026904      5.801166442     -0.643855644      0.882532175     -0.344506478       26
Fe     7.160016194      4.268674181      7.303082720      1.019837823      0.399881097     -0.537856004       26
Fe     5.898497315      2.760280906      8.672216977     -0.407251679      0.447600514      0.173296978       26
Fe     7.259438536      4.242214002      9.998781337     -0.243666785      1.021938414     -0.401874474       26
Fe     5.851733644      5.658598165      0.221123932     -0.161294812      0.439231831     -1.095782810       26
Fe     7.316826983      6.982938647      1.582942548     -0.430924853      0.952070744     -0.308469125       26
Fe     5.754419092      5.677016418      2.954728863      1.311181345     -0.144795786      0.475201820       26
Fe     7.310812021      7.113691606      4.327961016     -0.627661293     -0.119405371     -0.012944733       26
Fe     5.871452360      5.692766791      5.732880309      0.028634633     -0.112703277      0.434357019       26
Fe     4.440809102      7.088757127      7.282502101      0.413796164      0.293766272     -0.727772850       26
Fe     5.812939574      5.824183548      8.675370468      1.088800722     -1.436860465     -0.133855742       26
Fe     7.355922423      7.114698882     10.037909771     -0.519269499     -0.771089253     -0.163196914       26
Fe     5.880668961      8.363161620      0.141201178      0.095152670      0.933220187      0.233610944       26
Fe     7.389996282      9.777531276      1.442291066     -0.685038031     -0.114158007     -0.380726636       26
Fe     5.786095000      8.543037880      2.934696070      0.668939840     -0.728754754      0.431229786       26
Fe     7.178167147      9.790482018      4.558120040      0.168210051     -0.445519977     -0.522998884       26
Fe     5.920661564      8.473300411      5.875453312     -0.968292348     -0.578394330     -0.035660943       26
Fe     7.395809321      9.852695746      7.300025243     -0.472840262      0.330953679     -0.177810550       26
Fe     3.033553721      8.483084820      8.721209264      0.744919022      0.009585330     -0.658557468       26
Fe     5.913025976      8.449911412      8.626112118      0.399612160      0.118909920      0.578193012       26
Fe     7.367300177      9.797515670     10.095375315     -0.172706139      0.937416485     -0.008965951       26
Fe    10.213142440      2.034313651      0.881193087      0.623054134     -0.405055957      0.846071361       26
Fe     8.266745660     11.007334123      3.053540360      1.071724741      0.402941996     -0.026765441       26
Fe     8.127265361      2.011476921      4.297419829     -0.002959854     -0.288076164     -0.132618785       26
Fe     8.631562797      0.075708453      5.753941324      0.350341854     -0.532715340      0.662048769       26
Fe    10.178622085      1.401890164      7.205833318     -0.399007179      0.004760140      0.494077574       26
Fe     8.776108836     -0.019396117      8.566979929     -0.224910074      0.010077953      0.356753928       26
Fe    10.086835513      1.415818203      9.951439713      1.045413357      0.405864311      0.143374994       26
Fe     8.575016438      2.946549982     -0.006738629     -0.108709068      0.652016325      0.013052205       26
Fe    10.194802111      4.447649027      1.384281640      0.456808920     -0.116156783      0.387553686       26
Fe     8.836254013      3.171496554      2.732138860      0.469401412      0.003763581     -1.025912054       26
Fe    10.236007302      4.262903079      4.379357204     -0.857840843      0.407332925      0.651566125       26
Fe     8.756840934      2.981575794      6.078257839      0.281605726      0.194098231     -0.070177745       26
Fe    10.291001720      4.304843895      7.216031071     -0.607054930      0.218555592      0.382280611       26
Fe     8.881654870      2.945525523      8.660128568     -1.178614239     -0.206546741     -0.351881944       26
Fe    10.240909396      4.338878401     10.071460400     -0.507623174     -0.610104516     -0.354611685       26
Fe     8.629618494      5.669326424      0.082310333      0.875083432      0.289359144     -0.232102220       26
Fe    10.239163593      7.174155586      1.487895024     -0.046465233     -0.998054152      0.147527069       26
Fe     8.777346484      5.774678482      2.964964370     -0.263017422     -0.984880334     -0.131415508       26
Fe    10.086440079      7.118612685      4.507087595      0.942221876     -0.035624948     -0.801468636       26
Fe     8.684354567      5.730043399      5.751034765      0.512331635     -1.040133854      0.481963050       26
Fe    10.111911162      7.050583877      7.331767309      0.828167228      0.744884827     -0.991358742       26
Fe     8.701527010      5.696397290      8.506919817      0.087102803     -0.525826069      1.349871562       26
Fe    10.221831402      7.052128438     10.058075901     -0.263785410      0.092075831     -0.287735236       26
Fe     8.831781935      8.351117687      0.095201230     -0.408563713      1.281883368      0.114985902       26
Fe    10.183286791      9.884385198      1.543123804      0.219923419      0.525125444      0.140730615       26
Fe     8.783102886      8.403955135      2.878183137     -0.518178323      0.783416664      0.826481870       26
Fe    10.039620574      9.890534348      4.418602065      0.556776752      0.502582526     -0.585220094       26
Fe     8.718561741      8.501970311      5.787966048      0.424375997      0.108931469      0.696126427       26
Fe    10.260409959      9.888306096      7.247483498     -1.209978869     -0.049409403      0.290736484       26
Fe     7.365128064      7.066660816      7.073962051     -0.721721759      0.230144068      1.613976046       26