125
Lattice="11.3344 0.0 0.0 0.0 11.3344 0.0 0.0 0.0 11.3344" Properties=species:S:1:pos:R:3:force:R:3:Z:I:1 config_type=trivacancy_111_125_high config_name=trivacancy_111_125_high_0000 ecutwfc=1224.51225528 pbc="T T T" kpoints="3 3 3" timestamp=1474629200.28 degauss=0.136056917253 energy=-432597.023617
Fe     0.081611352     -0.014957985     -0.021649010     -0.900775437      0.078939036      0.347323379       26 
Fe     1.560841885      1.289029270      1.394641905     -0.628086040      0.441776708      0.000808355       26 
Fe     0.077140906     -0.115284336      2.755134023      0.092454811      0.936633584      0.733278610       26 
Fe     0.073698184      2.955183633      2.877240546     -0.225001862     -1.389260862     -0.447145172       26 
Fe     1.493352651      1.444503438      4.096581832     -0.570176570     -0.452293806      0.964506141       26 
Fe    -0.083002457      0.027526985      5.788866669      1.333154763     -0.668345144     -0.922921634       26 
Fe     1.548803063      1.412478477      6.988880514     -1.685232369     -0.199918694      0.741425665       26 
Fe    -0.203986489     -0.069305753      8.500197316      1.569753843     -0.432049968     -0.346398810       26 
Fe     1.336386920      1.342712332      9.787269497      0.879956444     -0.498117291      0.689970435       26 
Fe     0.100969986      2.743797946     -0.028659608     -0.378238580      0.529911038      0.214557527       26 
Fe     1.483298959      4.311516434      1.326140328     -0.242724733     -0.200711880      0.684950099       26 
Fe     1.355267617      4.478570336      4.041081469      0.152119830     -1.081413172      1.642533545       26 
Fe     0.006065581      2.815327508      5.616573916      0.205135977      0.552671986      0.156815950       26 
Fe     1.515542278      4.380108958      7.189362395     -1.166290685     -1.981552775     -1.147317744       26 
Fe    -0.041771265      2.845080047      8.386683175      1.316538752     -0.452334686      0.925436430       26 
Fe     1.457218980      4.253660612     10.027203897      0.181364329     -0.358918539     -0.754336459       26 
Fe     0.009279428      5.712818568     -0.023772351      0.337096302     -0.815332538      0.243088801       26 
Fe     1.397521126      7.071192887      1.309502755      0.440583459      0.757151045      0.430622492       26 
Fe     0.013512736      5.830656783      2.768380174     -0.519604771     -0.519381085      0.074303080       26 
Fe     1.223678180      7.264606705      4.162629206      1.262911969     -1.195328724      0.724923039       26 
Fe    -0.087485167      5.744056288      5.851896655      0.183100595      0.017618741     -0.873623559       26 
Fe     1.335746549      6.955679007      7.236635559      0.232408439      1.656038264     -0.896237440       26 
Fe     0.011183562      5.598919886      8.595101460      0.132371959      1.039832264      0.079191776       26 
Fe     1.441674112      7.162133131      9.960046773     -0.464029606     -0.654495897     -0.437829551       26 
Fe    -0.064664237      8.515750176     -0.120005386      0.178251751      0.461869108      1.549217671       26 
Fe     1.502544090      9.868994999      1.250843109      0.322470582     -0.000334758      0.728571434       26 
Fe     0.016702655      8.549905313      2.707718159     -0.577090009     -0.010025502      0.475658191       26 
Fe     1.489021493      9.842594551      4.228321031     -0.712330805      0.620313852     -0.137833496       26 
Fe    -0.193827602      8.394410640      5.785608255      0.765893310      0.629651070      0.012966073       26 
Fe     1.380717595      9.703339320      7.252372580     -0.707858371      0.835357060     -1.047752547       26 
Fe    -0.310878982      8.373994348      8.478207889      0.996691467      0.290478346     -0.242483306       26 
Fe     1.242383011      9.895248903      9.949447227      0.887960545     -0.042471795     -1.043325879       26 
Fe     3.032606675     -0.151938369     -0.180168324     -0.460492025      0.274859151      0.108334201       26 
Fe     4.427685215      1.372055892      1.470647626     -1.008501572      0.270082299     -0.379721592       26 
Fe     2.996867102     -0.036680827      2.787247144     -0.590980137      0.163814750      0.456554638       26 
Fe     4.432614093      1.578856803      4.205109880     -1.517455035     -1.487758279     -0.226416740       26 
Fe     2.796497646      0.029735685      5.627206275      0.328599577     -0.656499557     -0.087914757       26 
Fe     4.184035762      1.377347969      7.072528658      0.097877782      0.559062462     -0.332814901       26 
Fe     2.870461634     -0.224024609      8.396821467     -0.699318966      0.926750006      1.049022929       26 
Fe     4.260751504      1.471466140      9.956565740     -0.432755993     -0.184313127     -0.531421047       26 
Fe     2.827375170      2.714522188      0.067288048      0.570685391      0.455763252     -0.596532177       26 
Fe     4.220384344      4.120619579      1.463746915      0.555392984      1.098692784     -0.771426067       26 
Fe     2.792620420      2.925296883      2.817522981      0.728840372     -0.793808548      0.008402108       26 
Fe     4.240789302      4.263573610      4.309277969      0.386861545      0.038293496     -0.441515741       26 
Fe     2.782897137      2.892873710      5.643609192      0.252127771     -0.203119461     -0.330069220       26 
Fe     4.200622330      4.305544134      7.022862904      0.358364724     -0.216259340      0.405379144       26 
Fe     2.731237560      2.697330737      8.616842075      0.960080501      1.378290736     -0.947226529       26 
Fe     4.436856536      4.197326343      9.961708056     -2.034613658      0.558846747     -0.212720988       26 
Fe     2.857199275      5.750232437      0.018635352      0.613180584     -0.987468406     -0.598541494       26 
Fe     4.301682266      7.011733724      1.346352046      0.446393638      0.308298918     -0.347842227       26 
Fe     2.933563741      5.788741820      2.852446058     -0.897028311     -0.469223234     -0.479291931       26 
Fe     4.147563680      7.210032351      4.369820451      0.373974148     -1.323405140     -1.232995642       26 
Fe     2.749740186      5.582924950      5.517966257     -0.027752487      1.651297407      1.346184600       26 
Fe     4.137170262      7.128737693      7.094954437      0.156674025     -0.837687508      0.750537911       26 
Fe     2.730184572      5.689090013      8.489477886      2.089782332     -0.027269634      1.522595698       26 
Fe     4.422003779      7.113231520      9.987888355     -0.827329819     -1.445679349     -0.730870258       26 
Fe     3.010901854      8.490793878     -0.145820252     -0.865317097      0.592368275      1.206206290       26 
Fe     4.377526030     10.015927722      1.425722950     -0.481167037     -0.931680096     -0.180615880       26 
Fe     3.007192525      8.403905943      2.633069381     -1.448152750      1.178135757      0.834429664       26 
Fe     4.207578863      9.882560995      4.330434182      0.301401934      0.116651977     -0.707171372       26 
Fe     2.673253864      8.421071858      5.705110428      0.351857005      0.559326258      0.425381555       26 
Fe     4.340884635      9.891060718      7.073555588     -1.879269408     -0.448529968     -0.410216932       26 
Fe     2.907830833      8.489556151      8.727619048      0.046180354      0.527795534     -1.303666782       26 
Fe     5.739619381      0.113816746     -0.127610791     -0.807229449     -0.567796500      1.245475262       26 
Fe     7.115794522      1.293574749      1.472818300      0.414523530      1.124069572     -0.285336911       26 
Fe     5.791930584     -0.112957860      2.818353260     -0.745401876      1.140820823      0.432267998       26 
Fe     7.285003762      1.488597666      4.193287251     -1.534456197     -0.126334494      0.508181874       26 
Fe     5.611148377      0.069206203      5.693090909      0.146052541     -0.263711876     -0.542431796       26 
Fe     7.101699334      1.269529693      7.115034154     -0.891905645      1.488148830      0.270273075       26 
Fe     5.368484393     -0.018615063      8.593787202      1.606360181     -0.351192632     -0.100287934       26 
Fe     7.194262403      1.313505850      9.852591152     -1.491570968      1.085254657     -0.422783455       26 
Fe     5.711760491      2.760727674     -0.025676734      0.437163121      0.538393622      0.601775684       26 
Fe     7.135463095      4.338638814      1.492335978     -0.395510736     -0.944154575     -1.246321412       26 
Fe     5.764363022      2.872228417      2.813611151      0.120269519      0.035091701      0.156235395       26 
Fe     7.083174176      4.444120379      4.278829554      0.430465397     -0.906085022      0.065082076       26 
Fe     5.745332122      2.754984942      5.589308915     -0.010003648      1.200150571      0.993849627       26 
Fe     7.136106980      4.152264215      7.068533055     -0.662159841      1.408505825      0.821088981       26 
Fe     5.500120720      2.834386766      8.393164378      1.622397951     -0.280813569      0.405393028       26 
Fe     7.071001121      4.276409716      9.946188621      0.812358029     -1.045631901     -1.136921231       26 
Fe     5.781504171      5.614858364     -0.029731265     -0.288017543      0.676895090      0.437537216       26 
Fe     7.068054834      7.046504354      1.461555193      0.157205215     -0.271168333     -0.749184740       26 
Fe     5.543088331      5.615603431      2.857182409      1.016268361      0.638954864      0.085254437       26 
Fe     7.051649775      7.084126537      4.342683687      0.530416517      0.261723128     -1.027876891       26 
Fe     5.684834932      5.893204264      5.713968409     -0.361856796     -2.066119956      0.505150544       26 
Fe     7.191336326      7.175187730      7.313939919     -1.651132599     -0.753286163     -1.356035781       26 
Fe     5.777459842      5.665431539      8.540137225     -0.251015769      0.333895535     -0.265723508       26 
Fe     5.511604859      8.753679917     -0.159374483      0.274087306     -1.226948664      0.788386349       26 
Fe     7.079641345      9.897770218      1.313467596      0.161715701     -0.117096007      1.122486287       26 
Fe     5.648612865      8.333929251      2.733397115      0.333316780      1.401888320      0.863422708       26 
Fe     6.903080749      9.935823698      4.283027771      1.316026846     -0.876608610      0.106406645       26 
Fe     5.536022296      8.403354672      5.737743424      1.110313142      1.222424037     -0.221033364       26 
Fe     6.904050350      9.937281324      7.065583674      0.692263602     -0.148124850      0.790840467       26 
Fe     5.601858181      8.452468860      8.547877068      0.435580607      0.388884489      0.229916269       26 
Fe     6.859399876      9.978258807      9.979412003      1.751731123      0.094531234     -1.751816998       26 
Fe     8.491263009      0.013214154      0.013674761      0.203019702     -0.071830451      0.421861715       26 
Fe     9.955763707      1.449862785      1.346549944      0.155533741     -0.292805965      0.682095660       26 
Fe     8.556685495     -0.019142566      2.975409530     -0.751701850     -0.438986033     -1.895195849       26 
Fe     9.885514546      1.344636029      4.172307559      1.075428415      1.450089562      0.719403138       26 
Fe     8.415500015      0.043753629      5.772445277      0.343717921     -0.458046392     -0.673581966       26 
Fe     9.954916415      1.392519358      7.094304432     -0.592226093      0.178919724     -0.439255742       26 
Fe     8.449728724     -0.040379956      8.550149343      0.081625839     -0.369449778     -0.529114510       26 
Fe    10.027538171      1.400168616      9.889772382     -1.243546677      0.155552510      0.235891769       26 
Fe     8.355890999      2.708186746     -0.133290141      1.650567471      1.216870711      1.124524658       26 
Fe    10.130154570      4.171881828      1.489758139     -1.023717103      0.601979573     -1.689289827       26 
Fe     8.558569737      2.969432798      2.735470766      0.106944006     -1.114018102      0.930784581       26 
Fe     9.893189420      4.346642442      4.359337525      0.218908091     -0.044127843     -0.213075543       26 
Fe     8.471622681      2.905627675      5.761219641      0.974564811     -0.379777642     -1.004294476       26 
Fe    10.019549641      4.325252865      7.250633124     -1.159741828     -0.499295628     -1.694630008       26 
Fe     8.574928676      2.751549496      8.389761054     -0.674146067      0.569135273      1.362545043       26 
Fe     9.993316682      4.236582505      9.887167487     -0.409462570     -0.929583876      0.836548767       26 
Fe     8.570329381      5.583769669     -0.151293883     -0.765326896      0.444636804      0.996219156       26 
Fe     9.851884962      7.059129538      1.249601301      0.361551863      0.644736246      0.743750970       26 
Fe     8.678430121      5.589906714      2.643980645     -0.831732319      1.300030213      1.675057742       26 
Fe     9.905407393      7.163365124      4.325981452     -0.615368849     -0.525845867     -0.844180315       26 
Fe     8.496551980      5.858697884      5.920502112      0.671654925     -0.712365772     -0.645214214       26 
Fe     8.714623513      5.861139926      8.626950852     -1.188490875     -0.414670340     -0.646225172       26 
Fe    10.028474710      7.094114977     10.017074616     -1.380836385      0.016004088     -0.351733335       26 
Fe     8.317464006      8.524259884     -0.086920215      0.299909152     -0.887818877      0.058874919       26 
Fe     9.933738837      9.942008007      1.510281767     -0.690774419     -0.279885401     -1.178725311       26 
Fe     8.493964677      8.371475425      2.790721137     -0.118019033      1.164769363      0.414979386       26 
Fe     9.808879812     10.075758551      4.400360629      0.928022959     -1.876281272     -0.727544536       26 
Fe     8.392837131      8.552812995      5.727288528      0.053055227     -0.466388079     -0.255972599       26 
Fe     9.758445654      9.813830134      7.071368854      0.247697504      1.057633039      0.724839993       26 
Fe     8.355236812      8.539255250      8.517718201      0.704189406      0.295980249      1.111132296       26 
Fe     9.729409777      9.985828656     10.035866360      0.949525095     -0.971301310     -0.960724563       26 
125
Lattice="11.3344 0.0 0.0 0.0 11.3344 0.0 0.0 0.0 11.3344" Properties=species:S:1:pos:R:3:force:R:3:Z:I:1 config_type=trivacancy_111_125_high config_name=trivacancy_111_125_high_0001 ecutwfc=1224.51225528 pbc="T T T" kpoints="3 3 3" timestamp=1474629200.28 degauss=0.136056917253 energy=-432596.85993
Fe    -0.027519878     -0.058480551     -0.045362082      0.089376944      0.277591462      0.523315130       26 
Fe     1.409936114      1.261126198      1.312881959     -0.187095575      1.180343821      0.544527502       26 
Fe    -0.050269492     -0.189289977      2.732247387      0.116046482      1.836158950      1.418114809       26 
Fe    -0.010458693      2.757528812      2.951791508      0.247950500     -0.851440082     -1.440307029       26 
Fe     1.409701855      1.433984753      4.309833865     -0.064158022     -0.738396391     -0.454555091       26 
Fe    -0.053591775      0.017954075      5.709679291      1.228747922     -0.248657553      0.040476362       26 
Fe     1.565311685      1.505907641      7.063526118     -1.964981758     -1.153686623      0.838163934       26 
Fe     0.005991761      0.069760353      8.566154230      0.932584353     -0.197254003     -0.878401698       26 
Fe     1.499398556      1.567720132     10.021958314     -0.485013407     -1.230859569     -0.435282873       26 
Fe    -0.056736209      2.765466462      0.054683085      0.265688798      1.063439361     -0.310951268       26 
Fe     1.375353386      4.092176865      1.432043589     -0.349870828      0.777032357      0.098202512       26 
Fe     1.306626946      4.144084439      4.247745586      0.880043604      0.032141103      0.903513405       26 
Fe    -0.067498109      2.737219358      5.682947936      0.529414815      0.797789644      0.129308746       26 
Fe     1.379675624      4.398647718      7.144767515     -0.918835122     -2.223920125     -0.958687221       26 
Fe    -0.132834136      2.880203528      8.494435666      1.612805679      0.409373610      0.371959689       26 
Fe     1.328545601      4.303330435      9.860779746      0.105539155     -0.449011793      0.401647959       26 
Fe    -0.008996000      5.655696049      0.036021415     -0.444765873     -0.763652080      0.246328391       26 
Fe     1.339829268      6.902324461      1.636894621      0.939819952      1.378455029     -1.127497110       26 
Fe     0.041647029      5.541326456      2.831874338     -0.681062334      0.459868533      0.862624380       26 
Fe     1.375944713      6.873114296      4.432515449      0.829465635      0.572230110     -0.549899308       26 
Fe    -0.156856796      5.590566614      5.685800328      0.531362169      0.143062863      0.090353449       26 
Fe     1.433752726      7.050873867      7.150612235      0.071186389      0.683364243     -1.308559591       26 
Fe    -0.282343667      5.714003829      8.315881520      1.071707515      0.767568641      0.805149941       26 
Fe     1.397054693      6.900934524      9.979803199     -0.028006255      1.041125529     -0.739299876       26 
Fe     0.131444878      8.300413090     -0.003460857     -0.893647311      1.290871687      0.334649897       26 
Fe     1.260957248      9.862332389      1.522937951      1.723741323     -0.798342431     -0.961715980       26 
Fe     0.042620914      8.289702524      2.996731712      0.064074204      1.611842030     -1.249620394       26 
Fe     1.457264273      9.872894565      4.333728514     -0.733008387      0.364726661      0.001403051       26 
Fe    -0.061694545      8.279931126      5.691447274      0.922716460      1.036012376      0.810492436       26 
Fe     1.643378804      9.925405106      7.057278540     -1.030021963      0.111306911      0.289348089       26 
Fe     0.156519348      8.531974190      8.500600866     -0.567852807     -0.455129732      0.166483041       26 
Fe     1.435103050     10.040509021      9.965258772      0.132419267     -0.791788432     -0.441702404       26 
Fe     2.994038829     -0.060215825     -0.082279368     -0.950079167      0.215611679      0.032937631       26 
Fe     4.134364012      1.452866934      1.314408680      0.396319605     -0.558745188      0.118648696       26 
Fe     2.731139472      0.061696233      2.781105293      0.439280167     -0.506483146      0.655171325       26 
Fe     4.264527173      1.370890149      4.351534244     -0.459557686      0.156138207     -0.940620850       26 
Fe     2.905634362      0.125813177      5.717919388     -0.038481443     -1.142307949      0.124690788       26 
Fe     4.467141656      1.454693449      7.145979197     -1.577557655     -0.061010220     -0.662025372       26 
Fe     3.023693053      0.070941398      8.563779197     -0.475024671     -0.519847998      0.246888892       26 
Fe     4.400017446      1.467491959      9.893671540     -0.948754278      0.277756013      0.153494085       26 
Fe     2.894966334      3.048862177     -0.013303310     -0.343124510     -1.318433141     -0.119562980       26 
Fe     4.289762524      4.390625094      1.467491948     -0.440818458     -1.194568963     -0.934177152       26 
Fe     2.802428995      2.869739326      2.824454137     -0.147534011     -1.335011100      0.096410711       26 
Fe     4.222782114      4.177404038      4.164825745      0.582595769     -0.400286046      0.448745426       26 
Fe     2.784988957      2.833985630      5.783688786      0.887881612      0.310208991     -0.901478891       26 
Fe     4.318005094      4.274929002      7.069380483      0.024440392     -0.349386175      0.719322662       26 
Fe     2.767763514      2.706702778      8.546687806      1.241242969      2.176997493     -0.200159864       26 
Fe     4.337612246      4.315854086      9.903609338     -1.355328985      0.090079883     -0.399028519       26 
Fe     2.725813778      5.669803704      0.218035274      0.751847631      0.046534395     -1.212874189       26 
Fe     4.174643149      7.289750054      1.449034954      0.294829680     -1.637778804     -0.340756010       26 
Fe     2.770835964      5.513274269      2.941258370      0.387974062      1.162894772     -0.390850355       26 
Fe     4.288685438      7.034106583      4.267111723     -0.950667693      0.190281686     -1.083896857       26 
Fe     2.957120342      5.383061905      5.648632643     -1.210639643      2.466863916      0.022005043       26 
Fe     4.279443312      7.265139433      7.023754173     -0.122861448     -1.469757215      0.882717037       26 
Fe     2.673142889      5.676422450      8.347702678      2.247618496     -0.038102977      1.760220134       26 
Fe     3.951489521      7.092213926      9.956492917      1.495818173     -0.680423415      0.111898264       26 
Fe     2.766044709      8.566324903      0.015272968     -0.222580140     -0.153851983      0.116594384       26 
Fe     4.074905801      9.882912984      1.461522777      1.211239481      0.027158048     -0.058085076       26 
Fe     2.824075840      8.431536366      3.020230893     -0.874782099     -0.010195709     -1.233341712       26 
Fe     4.155237590     10.007679362      4.195757810      0.979881852     -0.111082968      0.418927058       26 
Fe     3.019505480      8.483061539      5.555983546     -1.755975757      0.156060560      1.552126103       26 
Fe     4.357685117      9.958206247      7.217692002     -0.318491800      0.545619707     -0.992629381       26 
Fe     2.888894768      8.544466671      8.653562051     -0.419535124      0.621408628     -0.693103324       26 
Fe     5.594780245     -0.051328238     -0.081178662     -0.162717146     -0.015259240     -0.250464011       26 
Fe     7.004037667      1.462778277      1.286630945      0.388579299     -0.671320167      1.018857719       26 
Fe     5.603538778     -0.117207296      2.763290473     -0.086562357      0.829434781     -0.286569755       26 
Fe     7.024806549      1.327571523      4.230866034      0.600255648      1.094917634     -0.319649053       26 
Fe     5.808719607     -0.057991472      5.651625616     -1.169536703      0.547182938      0.761673102       26 
Fe     7.142941374      1.519596649      6.937670006     -0.042430915     -0.304510398      1.286532951       26 
Fe     5.785908504      0.119082981      8.449554865      0.166598740     -1.063656876      0.505450849       26 
Fe     7.169199937      1.392849823      9.936581425     -0.864651181      1.111080102     -0.721665452       26 
Fe     5.623552359      2.875419765     -0.032951266      0.570693876      0.272660344      0.566961405       26 
Fe     7.144270173      4.197119411      1.615226184     -0.433525267     -0.349991927     -1.835457810       26 
Fe     5.457661491      2.582157954      2.764401221      1.519696779      1.608567473      0.394867703       26 
Fe     7.010145163      4.162140059      4.208334075      0.502420546      0.243376765     -0.071390021       26 
Fe     5.640426708      2.806587665      5.635266450      0.347879765      0.527609387     -0.128391634       26 
Fe     7.144544806      4.342530424      6.954231480     -1.028941842      0.085755288      0.847444588       26 
Fe     5.665813803      2.904539403      8.503735893      1.213882832      0.342825491     -0.035650145       26 
Fe     7.139399963      4.267927596     10.044334540     -0.574213459     -0.540392654     -1.363347227       26 
Fe     5.664031525      5.768973312     -0.216192754     -0.238690415      0.313669439      1.686276237       26 
Fe     6.962992393      7.299617363      1.507099034      0.559053721     -1.619710634     -0.498252788       26 
Fe     5.687190787      5.591312452      2.702115270     -0.038041013      1.311728476      1.355994387       26 
Fe     6.985096388      7.207824602      4.454106065      1.263586884     -0.512061926     -2.169325835       26 
Fe     5.544783652      5.744718705      5.467879544      1.508783732     -1.348016254      2.082273683       26 
Fe     7.095508712      7.116111285      6.938386192     -1.022427952     -0.249963160      0.639585813       26 
Fe     5.665205950      5.837876943      8.587879781      0.487999743      0.001962266     -0.688228513       26 
Fe     5.824077776      8.356816907     -0.228651141     -0.920002403      0.573955834     -0.009042570       26 
Fe     7.003033813      9.939697535      1.173756948      0.343127595     -0.178396247      1.497013994       26 
Fe     5.642322953      8.452330694      2.888597195     -0.390816930      1.448030365      0.094704269       26 
Fe     7.093089849     10.026357705      4.271827309      0.246541021     -1.696198381     -0.323826839       26 
Fe     5.632763633      8.669085747      5.659717607      0.565412573     -0.381558388      0.283489573       26 
Fe     7.306123728      9.865867792      7.126291809     -1.041117815      0.458651887     -0.010955985       26 
Fe     5.633979248      8.613086512      8.591422144      0.535336066     -0.295118158      0.089659251       26 
Fe     7.189393848     10.076976195      9.873128836      0.043458328     -0.608851103     -0.958849200       26 
Fe     8.562129248      0.120296408     -0.099310789      0.113833791     -1.330715815      1.005506494       26 
Fe     9.911741532      1.442767541      1.418794775      0.204401155     -0.950256059      0.126560751       26 
Fe     8.342078832     -0.031764191      2.800284877      1.069459085      0.085710037     -0.945876185       26 
Fe     9.870435589      1.227452387      4.207495352      0.378090484      1.397351352      0.192713949       26 
Fe     8.564462287      0.013274430      5.695290984     -0.160327563     -0.278772113      0.053861782       26 
Fe     9.916132309      1.556971459      7.123447985      0.185391705     -1.433121824     -0.530846148       26 
Fe     8.554871889      0.190750505      8.433343670      0.184361978     -1.402088095      0.214550071       26 
Fe    10.006927109      1.441828033      9.880425696     -0.566811767      0.260134958      0.392726232       26 
Fe     8.551931961      2.734970590     -0.029043131     -0.170380833      1.708960822      0.699034602       26 
Fe     9.914669026      4.385762976      1.583008299     -0.144471570     -1.713974216     -2.333241629       26 
Fe     8.668137885      2.776480835      2.870450877     -1.995599483     -0.309310647     -0.118058885       26 
Fe     9.966685875      4.162259591      4.162318972     -0.857116049      0.554757664      1.527341440       26 
Fe     8.534676289      2.899048419      5.727409058     -0.236597280     -0.505417938     -1.682007434       26 
Fe     9.840669653      4.224179656      7.119624337      0.028199088      0.303396339     -0.748419065       26 
Fe     8.501059762      2.895696610      8.518348893     -0.573792826      0.266920356      0.307849232       26 
Fe     9.840838048      4.393142464      9.956042941     -0.072584812     -0.752573968      0.217632566       26 
Fe     8.152539022      5.858292181      0.028361321      1.510024032     -0.122716181     -0.261595859       26 
Fe     9.790258911      7.030477648      1.332505886      0.545264637      0.680867187      0.585455093       26 
Fe     8.537021761      5.652406647      2.793069682     -1.123904507      0.905863136      1.175884756       26 
Fe     9.989465060      7.086179911      4.159968614     -1.486933470     -1.180297026      0.368295610       26 
Fe     8.574701308      5.716851473      5.604357553     -0.114395320     -0.076395444      0.089919704       26 
Fe     8.418654718      5.808197771      8.440200914     -0.201505065     -0.550372134      0.474121186       26 
Fe     9.974830684      7.020410185      9.972648846     -0.508608420      0.747966037     -0.188794045       26 
Fe     8.502392642      8.621835399     -0.163049424     -0.021697796     -1.271628523      0.398321980       26 
Fe     9.963665359      9.778045891      1.433672773     -0.857338707      0.236594195     -0.608655442       26 
Fe     8.421287711      8.489620621      2.804026454      0.585702947      0.503207818      0.599106622       26 
Fe     9.907374252      9.987625669      4.213853213     -0.000526562     -1.523822886      0.303623110       26 
Fe     8.775177794      8.435443775      5.802757259     -0.968898357      0.386746617     -1.241315731       26 
Fe    10.090083476      9.889679598      7.090036815     -0.407943820      0.675979777      0.464620960       26 
Fe     8.649507362      8.249389169      8.274271781      0.435805836      0.909519759      1.413970448       26 
Fe     9.957002602      9.903215751      9.908564964      0.103720357     -0.047423483     -0.709794926       26 
125
Lattice="11.3344 0.0 0.0 0.0 11.3344 0.0 0.0 0.0 11.3344" Properties=species:S:1:pos:R:3:force:R:3:Z:I:1 config_type=trivacancy_111_125_high config_name=trivacancy_111_125_high_0002 ecutwfc=1224.51225528 pbc="T T T" kpoints="3 3 3" timestamp=1474629200.28 degauss=0.136056917253 energy=-432597.070231
Fe    -0.053376421      0.173152886     -0.032402998      0.112202940     -1.225243509      0.646793386       26 
Fe     1.263187291      1.423366573      1.563004862      1.339707477      1.668875011     -1.128571060       26 
Fe    -0.006999377      0.168318504      2.817934363     -1.022209666     -0.487817195      1.244698017       26 
Fe    -0.077681716      3.101502735      2.867870272      0.544069075     -2.080704024     -0.592639784       26 
Fe     1.470104765      1.529154133      4.340323809     -0.673706151     -0.810173362     -1.383400546       26 