12
Lattice="2.8336 0.0 0.0 0.0 2.8336 0.0 0.0 0.0 31.5848" Properties=species:S:1:pos:R:3:force:R:3:Z:I:1 config_type=surface_100 energy=-41528.1989621 pbc="T T T"
Fe      1.36349645       1.45982896       7.85238192       0.26583201      -0.02025592      -0.24811531       26
Fe      0.02490386       0.03755792       9.21036932      -0.16635500       0.69742046       0.25688765       26
Fe      1.46591353       1.62183738      10.70081026      -0.80754081      -0.60673354       0.21363296       26
Fe     -0.14996805       0.21755104      12.19263837       1.41259131      -0.71994435      -0.20982104       26
Fe      1.43588437       1.47337973      13.63787511      -0.61363875       0.35743501       0.04936672       26
Fe      0.04640236      -0.02551758      15.06070713      -0.04650226       0.13513049       0.32120251       26
Fe      1.46977867       1.32999175      16.53881448      -0.20685296      -0.06240684      -0.20151175       26
Fe      0.01005617      -0.14774316      17.98211857       0.13950240       0.27539420      -0.02347983       26
Fe      1.41186901       1.28029205      19.41691677      -0.09592914      -0.31220982      -0.12648130       26
Fe     -0.03641132      -0.20128862      20.85653772       0.36577850       1.07686978      -0.36599576       26
Fe      1.43010242       1.40515549      22.27800628      -0.21247185      -0.72222158       0.78360744       26
Fe      0.02877253       0.04975504      23.78162406      -0.03441319      -0.09847762      -0.44929204       26
12
Lattice="2.8336 0.0 0.0 0.0 2.8336 0.0 0.0 0.0 31.5848" Properties=species:S:1:pos:R:3:force:R:3:Z:I:1 config_type=surface_100 energy=-41528.3087033 pbc="T T T"
Fe      1.32309102       1.43833541       7.81831248      -0.03046603      -0.01674328       0.43543097       26
Fe     -0.08850669       0.01779384       9.30468051       0.42299480      -0.23888633      -0.36988404       26
Fe      1.42569561       1.37378055      10.77546004      -0.34868298       0.19209174       0.07284578       26
Fe      0.02909123      -0.04997855      12.22509826       0.34085397       0.62657449       0.17061789       26
Fe      1.54719809       1.52615199      13.71183180      -0.97878116      -0.81249533      -0.38404182       26
Fe     -0.01777121       0.05579421      15.12261608       0.54832836       0.44530915      -0.00092251       26
Fe      1.38275499       1.51676097      16.53185284      -0.16366974      -0.47310971      -0.17969183       26
Fe     -0.07926684       0.03447727      17.91582110       0.71417017      -0.03274917       0.28144426       26
Fe      1.46497468       1.36877932      19.34940475      -0.47977016       0.37494063       0.26790509       26
Fe      0.06283720      -0.03232161      20.83697618      -0.25196682       0.16179978      -0.71507803       26
Fe      1.42977450       1.42993806      22.23347728       0.24301912      -0.78192465       0.44715443       26
Fe      0.02092743      -0.17871147      23.68326868      -0.01602980       0.55519244      -0.02578045       26
12
Lattice="2.8336 0.0 0.0 0.0 2.8336 0.0 0.0 0.0 31.5848" Properties=species:S:1:pos:R:3:force:R:3:Z:I:1 config_type=surface_100 energy=-41528.0413728 pbc="T T T"
Fe      1.53747009       1.28622726       7.92818431      -0.48030083       0.33478411       0.24755249       26
Fe     -0.06554719      -0.00530260       9.43177499       0.61911520      -0.50337494      -0.73798373       26
Fe      1.37636495       1.37104713      10.82427291      -0.23792551      -0.19561801       0.07897760       26
Fe     -0.06829830      -0.12623121      12.20421327      -0.10343368       0.95338175       0.36204680       26
Fe      1.29399765       1.43601584      13.63936691       0.25080340      -0.95361675      -0.02476821       26
Fe     -0.10425826      -0.06765593      15.05296619       0.97671554       0.85432743      -0.08382953       26
Fe      1.56623709       1.45376157      16.49233373      -1.35093368       0.08569667      -0.09514984       26
Fe      0.07462321       0.17208137      17.89807624       0.20455799      -0.46786415      -0.07805303       26
Fe      1.45874857       1.61538490      19.27077235      -0.12274472      -0.23379452       0.49918224       26
Fe     -0.02441367       0.16882565      20.73567454       0.36042649      -0.81985999       0.16547697       26
Fe      1.41905822       1.29629514      22.30245379      -0.04842261       1.03286457      -0.12567681       26
Fe      0.03681763      -0.09964912      23.72871080      -0.06785758      -0.08692643      -0.20777470       26
12
Lattice="2.8336 0.0 0.0 0.0 2.8336 0.0 0.0 0.0 31.5848" Properties=species:S:1:pos:R:3:force:R:3:Z:I:1 config_type=surface_100 energy=-41528.1874111 pbc="T T T"
Fe      1.34842512       1.31935264       7.88462060       0.36869927      -0.37134674       0.00268295       26
Fe      0.05209023      -0.21421307       9.30790688      -0.50559303       0.94860644      -0.06034071       26
Fe      1.43771534       1.34484641      10.77472632       0.01346230      -0.52035296       0.29411800       26
Fe     -0.01120174      -0.04581472      12.24280552       0.19200587       0.24079281      -0.13187548       26
Fe      1.42200104       1.45299227      13.68424204      -0.07088840      -0.33236059      -0.50858605       26
Fe      0.00057035       0.03215352      15.04368118      -0.31072578       0.03879280       0.32511445       26
Fe      1.33907614       1.44814249      16.44946567       0.27872095      -0.34658187       0.61625254       26
Fe     -0.08212863      -0.07163087      17.96486903       0.45000604       0.01143035      -0.59587372       26
Fe      1.43677986       1.26668643      19.38724027      -0.19054754       1.28005917      -0.25782739       26
Fe      0.06520493       0.09005969      20.79194518      -0.00353192      -0.82048426       0.36661385       26
Fe      1.54356936       1.54900055      22.27984682      -0.88051592       0.54934755      -0.29716244       26
Fe     -0.05130201       0.32922467      23.69745049       0.65890817      -0.67790296       0.24688401       26
12
Lattice="2.8336 0.0 0.0 0.0 2.8336 0.0 0.0 0.0 31.5848" Properties=species:S:1:pos:R:3:force:R:3:Z:I:1 config_type=surface_100 energy=-41528.1416197 pbc="T T T"
Fe      1.36463227       1.28822717       7.76056713       0.11217003       0.09081856       0.27155554       26
Fe     -0.00539836      -0.07989863       9.20869996      -0.31888749       0.37198154      -0.10596262       26
Fe      1.36540190       1.46107242      10.70373995       0.57722782      -0.91434546       0.30414581       26
Fe      0.05052058      -0.09732517      12.23005896      -0.36868950       0.13025748      -0.08780857       26
Fe      1.47235409       1.22283912      13.71306971       0.05079240       0.63968814      -0.60492760       26
Fe      0.06794627      -0.11767955      15.09894486      -0.52196684      -0.17437890      -0.03051591       26
Fe      1.37590277       1.33551245      16.48116239       0.75793909       0.52729571       0.52432583       26
Fe      0.02891672       0.11285475      17.97030431      -0.34012943      -0.86869141      -0.23465738       26
Fe      1.42776098       1.49294255      19.39541562      -0.59683788       0.71445017      -0.17903028       26
Fe     -0.15217773       0.19552149      20.81745403       0.88208660      -0.68444025       0.40801144       26
Fe      1.33395905       1.56888544      22.34986618       0.53643470       0.04207919      -0.38008103       26
Fe      0.17098146       0.11784796      23.77951689      -0.77013897       0.12528548       0.11494451       26
12
Lattice="2.8336 0.0 0.0 0.0 2.8336 0.0 0.0 0.0 31.5848" Properties=species:S:1:pos:R:3:force:R:3:Z:I:1 config_type=surface_100 energy=-41528.101446 pbc="T T T"
Fe      1.45640586       1.43595902       7.82965939      -0.17577346      -0.16987998       0.12020164       26
Fe     -0.02504913      -0.04776948       9.25649838       0.14491997      -0.49763418      -0.30654568       26
Fe      1.38321400       1.20763152      10.71512948       0.39240639       0.87044722      -0.28151214       26
Fe      0.04199290      -0.15783684      12.07513529      -1.02948923       0.37100221       0.35143791       26
Fe      1.30214432       1.40077029      13.49796285       1.11347303      -0.27785834       0.90503756       26
Fe      0.03421710       0.07820508      15.08366761      -0.42788015      -0.70385645      -0.46006188       26
Fe      1.46559157       1.39175494      16.54649914      -0.12767327       1.06250322      -0.24367501       26
Fe      0.02444069       0.14720378      17.98626122       0.08040508      -0.83026705       0.00492983       26
Fe      1.43512856       1.52031296      19.41443717       0.34597766      -0.00057798       0.11986868       26
Fe      0.10137948       0.04883168      20.88030503      -0.49607044      -0.00546642       0.01090636       26
Fe      1.46655405       1.42159963      22.39295270      -0.51417974       0.37345273      -0.26424178       26
Fe     -0.18521941       0.05413741      23.83029174       0.69388391      -0.19186471       0.04365450       26
12
Lattice="2.8336 0.0 0.0 0.0 2.8336 0.0 0.0 0.0 31.5848" Properties=species:S:1:pos:R:3:force:R:3:Z:I:1 config_type=surface_100 energy=-41528.225377 pbc="T T T"
Fe      1.40930562       1.20501115       7.76805142       0.19488422       0.57443020       0.00556952       26
Fe      0.04542977      -0.00727111       9.19114155      -0.41684344      -0.61909618       0.54876134       26
Fe      1.39316216       1.40585656      10.76739311       0.36163774       0.68649816      -0.22456092       26
Fe      0.01293544       0.18572938      12.27891207      -0.53038155      -0.98853104      -0.72183849       26
Fe      1.34431013       1.53200868      13.64087295       0.75729349       0.02743418       0.38193634       26
Fe      0.01684502       0.03396537      15.08418358      -0.35225553       0.52070392      -0.33745523       26
Fe      1.44157479       1.49290851      16.43616672       0.04211518      -0.71952192       0.56533467       26
Fe      0.03629873      -0.06787298      17.90779485      -0.30950965       0.46762864       0.06745546       26
Fe      1.38946251       1.33143784      19.36429166       0.33278662       0.07108612       0.22416368       26
Fe     -0.00826192      -0.07756616      20.88201840      -0.31238774       0.31959789      -0.27473188       26
Fe      1.35102335       1.42967987      22.39610133       0.63510824      -0.28003195      -0.29666596       26
Fe      0.06871439       0.03691288      23.79187236      -0.40244757      -0.06019827       0.06203095       26
12
Lattice="2.8336 0.0 0.0 0.0 2.8336 0.0 0.0 0.0 31.5848" Properties=species:S:1:pos:R:3:force:R:3:Z:I:1 config_type=surface_100 energy=-41528.2330989 pbc="T T T"
Fe      1.41870210       1.49151952       7.96631800       0.02178341       0.14606514      -0.83279264       26
Fe      0.01048186       0.10572835       9.23190795      -0.32043375      -0.44505126       0.68008300       26
Fe      1.35595276       1.44982558      10.70077341       0.67036680       0.58244973       0.53047951       26
Fe      0.05035337       0.10682597      12.20171185      -0.14719797      -0.71066139      -0.22012397       26
Fe      1.52959511       1.41624109      13.64144257      -0.64245568       0.38439174       0.23694052       26
Fe     -0.01413272      -0.01395105      15.13283341      -0.06815043       0.37217181      -0.26700392       26
Fe      1.27404354       1.47821228      16.56136477       0.86262052      -0.94532983       0.02116995       26
Fe     -0.05179560      -0.10352080      18.02662521      -0.25320583       1.09656520      -0.49012836       26
Fe      1.40106777       1.41966923      19.40058900       0.11692991      -0.71062411      -0.03772348       26
Fe      0.04809730      -0.04958080      20.78371501      -0.54461363       0.12273803       0.18112239       26
Fe      1.39633647       1.33783677      22.22545368       0.61284068      -0.08573652       0.19588566       26
Fe      0.08209804      -0.13800617      23.63606514      -0.30848455       0.19302171       0.00209082       26
12
Lattice="2.8336 0.0 0.0 0.0 2.8336 0.0 0.0 0.0 31.5848" Properties=species:S:1:pos:R:3:force:R:3:Z:I:1 config_type=surface_100 energy=-41528.1718821 pbc="T T T"
Fe      1.42940997       1.71370885       7.81974917       0.00403612      -0.24589927       0.65396496       26
Fe      0.02039992       0.14273333       9.36662648       0.11759171      -0.02073698      -0.17355769       26
Fe      1.47305351       1.47026685      10.90790269      -0.61990042      -0.04455722      -0.57129526       26
Fe     -0.07659062      -0.02041241      12.35289014       0.41548512       0.25098080      -0.84500153       26
Fe      1.32034989       1.37845612      13.65522609       0.39992429       0.34348344       0.57178737       26
Fe     -0.02220968       0.02636482      15.06068962       0.03823719      -0.57688561       0.08854802       26
Fe      1.47824107       1.37619574      16.44639234      -0.21030492       0.22002061       0.29163149       26
Fe      0.09796746      -0.05934150      17.87981158      -0.81441285       0.51570441      -0.15353522       26
Fe      1.34870235       1.45400135      19.28762275       1.05220364      -1.16188176       0.24242571       26
Fe      0.02150773      -0.15699580      20.76122908      -0.18681687       0.79894458       0.14001071       26
Fe      1.48463238       1.28030903      22.26781752      -0.55525852       0.01581537      -0.11623674       26
Fe     -0.07466397      -0.10448640      23.70284252       0.35921550      -0.09498863      -0.12874182       26
12
Lattice="2.8336 0.0 0.0 0.0 2.8336 0.0 0.0 0.0 31.5848" Properties=species:S:1:pos:R:3:force:R:3:Z:I:1 config_type=surface_100 energy=-41528.1847465 pbc="T T T"
Fe      1.43241885       1.40028464       7.94442245      -0.45841997       0.40710358      -0.05624288       26
Fe     -0.13259544       0.10665318       9.38703549       1.23013786       0.23783167      -0.92480600       26
Fe      1.43859556       1.64960722      10.73047724      -0.84427776      -1.15756796       0.78050849       26
Fe      0.01023863       0.10856033      12.14568458       0.28395057       0.45065807       0.42734588       26
Fe      1.48365751       1.50159637      13.58981793      -0.32158072      -0.16024837       0.42212397       26
Fe      0.03730299       0.01144979      15.12850937      -0.05062296      -0.26833575      -0.73640327       26
Fe      1.41577896       1.29966077      16.52589275       0.26874687       0.55990218       0.04700028       26
Fe      0.02385583      -0.10044168      17.93950361      -0.21273461      -0.01229064       0.11842758       26
Fe      1.41474194       1.32241572      19.36051926       0.13334178      -0.27729990       0.18010732       26
Fe      0.00330889      -0.15198091      20.83523587      -0.27118067       0.97302678      -0.55879224       26
Fe      1.36778132       1.44349490      22.27458030       0.44368370      -1.15411574       0.05724253       26
Fe      0.00571498      -0.09050035      23.64712115      -0.20104381       0.40133609       0.24348835       26
12
Lattice="2.8336 0.0 0.0 0.0 2.8336 0.0 0.0 0.0 31.5848" Properties=species:S:1:pos:R:3:force:R:3:Z:I:1 config_type=surface_100 energy=-41528.2141273 pbc="T T T"
Fe      1.29313880       1.51719164       7.68274915       0.37439761      -0.37794702       0.51773147       26
Fe      0.05083770      -0.06213474       9.23265587      -0.27677385       0.62372108      -0.34732569       26
Fe      1.49680860       1.41466075      10.71563278      -0.49932777      -0.39084675       0.48211115       26
Fe     -0.04380310      -0.04105835      12.27667865       0.77920571       0.61203876      -0.35984979       26
Fe      1.47418061       1.50663012      13.74929756      -0.52767186      -0.60675977      -0.41201748       26
Fe      0.01857235       0.06017529      15.17211305      -0.02202150       0.17908325      -0.79354192       26
Fe      1.40106188       1.48432210      16.46212321       0.03495620      -0.20132303       1.02036336       26
Fe     -0.05091953       0.02081555      17.92013265       0.46582526      -0.08594683       0.06294523       26
Fe      1.45151741       1.36696236      19.36462727      -0.40163150       0.16672961       0.03801504       26
Fe      0.02062395      -0.07441447      20.82618894      -0.33717446       0.18336593      -0.07176283       26
Fe      1.33748537       1.36433434      22.30677211       0.68077128      -0.10460224       0.29583730       26
Fe      0.05129595      -0.05668457      23.79982877      -0.27055564       0.00248729      -0.43250557       26
12
Lattice="2.8336 0.0 0.0 0.0 2.8336 0.0 0.0 0.0 31.5848" Properties=species:S:1:pos:R:3:force:R:3:Z:I:1 config_type=surface_100 energy=-41528.1916848 pbc="T T T"
Fe      1.51579361       1.34615108       7.82714792      -0.27390527       0.23204694       0.11286423       26
Fe      0.00535699       0.01012021       9.26680398       0.05447062      -0.31738520      -0.29816080       26
Fe      1.36590787       1.40679308      10.69614021       0.22351808      -0.23049091       0.26551371       26
Fe     -0.04715327      -0.08866866      12.15352672       0.16664733       0.51851874      -0.31920580       26
Fe      1.40737469       1.37442607      13.51848872      -0.39801190      -0.34102906       0.58938040       26
Fe     -0.06476070      -0.07371010      14.99575308       0.74007815       0.58129993       0.10602586       26
Fe      1.49460443       1.47688941      16.49309055      -0.76241924      -0.40743603       0.38879733       26
Fe      0.00426344       0.07920338      18.07471671       0.11024993       0.03713393      -0.80481107       26
Fe      1.38164276       1.51427153      19.50016586       0.27543842       0.10830669      -0.42433177       26
Fe     -0.00473644       0.13716038      20.86483138       0.30626415      -1.03824384       0.16096468       26
Fe      1.51138332       1.33650442      22.32788412      -0.83740006       1.03539788       0.43808281       26
Fe     -0.06887670      -0.01834080      23.79025074       0.39506954      -0.17811883      -0.21511957       26
12
Lattice="2.8336 0.0 0.0 0.0 2.8336 0.0 0.0 0.0 31.5848" Properties=species:S:1:pos:R:3:force:R:3:Z:I:1 config_type=surface_100 energy=-41528.2827293 pbc="T T T"
Fe      1.41426867       1.32142286       7.85403190      -0.08161504      -0.06448172       0.01194560       26
Fe     -0.02902866      -0.11235727       9.25228159       0.29873699       0.12616223       0.03596433       26
Fe      1.43873308       1.31931322      10.71828637       0.00400578       0.13128850       0.33437376       26
Fe      0.08025566      -0.03680575      12.21920852      -0.47655576       0.06178181      -0.32639280       26
Fe      1.42943273       1.44751978      13.63365385      -0.08681998      -0.50040326       0.22010622       26
Fe     -0.08079955      -0.03402187      15.11501866       0.56679403       0.17678802      -0.81271284       26
Fe      1.38354210       1.36995275      16.44471478      -0.05356019       0.09577256       0.37366433       26
Fe      0.01462633      -0.04240098      17.85632437       0.08349940      -0.14174774       0.23924063       26
Fe      1.50324797       1.35290015      19.27919913      -0.77669606       0.79617036       0.48235180       26
Fe     -0.06640273       0.15820319      20.85864748       0.72861900      -0.83443995      -0.03365600       26
Fe      1.41620654       1.53895348      22.41831624      -0.23237244       0.35237920      -0.23973326       26
Fe     -0.00328214       0.21812045      23.85911710       0.02596403      -0.19926949      -0.28515179       26
12
Lattice="2.8336 0.0 0.0 0.0 2.8336 0.0 0.0 0.0 31.5848" Properties=species:S:1:pos:R:3:force:R:3:Z:I:1 config_type=surface_100 energy=-41528.2256773 pbc="T T T"
Fe      1.37785209       1.33934404       7.89499193       0.25457880      -0.04929062       0.00093305       26
Fe      0.04383379      -0.09695125       9.29288981      -0.53008099       0.04454642       0.18387964       26
Fe      1.39735807       1.31806809      10.78378046       0.13262804       0.06395825       0.00995685       26
Fe     -0.05503781      -0.08731364      12.25843332       0.36683831      -0.30172435      -0.58633210       26
Fe      1.41798260       1.27782916      13.60729028       0.40517834       0.54896651       0.55228812       26
Fe      0.17318508      -0.06029083      15.08515805      -1.19835234      -0.17119999      -0.22134112       26
Fe      1.44497416       1.39429354      16.48661755       0.01725776       0.49569865       0.26238210       26
Fe     -0.11917154       0.13736705      17.96888888       1.03772602      -1.11431352      -0.11345173       26
Fe      1.41865412       1.43812917      19.40824842      -0.63462461       0.46617828      -0.03406943       26
Fe     -0.02789559       0.01547738      20.84670101       0.28942162       0.53383608      -0.50178111       26
Fe      1.41993856       1.55662396      22.26695374      -0.12703769      -0.02113190      -0.03642559       26
Fe      0.00912647       0.26822333      23.60884657      -0.01353274      -0.49552382       0.48396131       26
12
Lattice="2.8336 0.0 0.0 0.0 2.8336 0.0 0.0 0.0 31.5848" Properties=species:S:1:pos:R:3:force:R:3:Z:I:1 config_type=surface_100 energy=-41528.1695494 pbc="T T T"
Fe      1.43554125       1.33287224       7.93226478      -0.08477647       0.00112949       0.04761426       26
Fe     -0.01617898      -0.09056675       9.33524656       0.16640077      -0.12565392       0.14297416       26
Fe      1.41888562       1.29891653      10.82697631       0.15433175       0.29772166      -0.15661592       26
Fe      0.05579506      -0.07462951      12.27649944      -0.79365814      -0.27867261      -0.40954562       26
Fe      1.34287553       1.32550228      13.63284664       0.61536294       0.73272839       0.68847508       26
Fe     -0.06118374       0.08294068      15.13517468       0.17704950      -1.26939372      -0.56610009       26
Fe      1.41136132       1.34706596      16.51709156       0.05014397       1.38829104      -0.05280172       26
Fe      0.05804924       0.10663078      17.92886437      -0.08350763      -0.44224645      -0.25974338       26
Fe      1.51496299       1.58858288      19.28848630      -0.52777471      -0.29249975       0.20247206       26
Fe      0.01748393       0.17624336      20.67440307       0.29855829      -0.19384421       0.68046764       26
Fe      1.42347536       1.54023242      22.20000839      -0.23191119      -0.32254232       0.20536763       26
Fe     -0.10026760      -0.13299088      23.76093790       0.25978092       0.50498265      -0.52256411       26
12
Lattice="2.8336 0.0 0.0 0.0 2.8336 0.0 0.0 0.0 31.5848" Properties=species:S:1:pos:R:3:force:R:3:Z:I:1 config_type=surface_100 energy=-41528.3178818 pbc="T T T"
Fe      1.43450691       1.30388576       7.94936369      -0.08148109       0.22371837      -0.14535500       26
Fe     -0.00930432      -0.04495308       9.32483458      -0.10626189      -0.28477924       0.14856991       26
Fe      1.35940158       1.36239790      10.79290245       0.66963481       0.55592289      -0.09993004       26
Fe      0.05764111       0.06796559      12.23520355      -0.73995859      -0.81170831      -0.41515885       26
Fe      1.42157253       1.42700514      13.57220299       0.07907762       0.83444252       0.66803738       26
Fe     -0.04025934       0.14863226      15.03960302       0.37623055      -0.53380703      -0.17005045       26
Fe      1.42483504       1.56021694      16.43750836      -0.11503912      -0.40277025       0.36840642       26
Fe      0.02768731       0.01854465      17.92310057      -0.49870813       0.21829180      -0.16063172       26
Fe      1.34162534       1.37651840      19.36285397       0.61878482      -0.09888540       0.16403587       26
Fe     -0.02391139      -0.13029986      20.85784042       0.08447848       0.47178405      -0.42173187       26
Fe      1.46129992       1.32899989      22.32783182      -0.28610901       0.46573810      -0.35070875       26
Fe      0.04570531       0.08188640      23.68555457      -0.00064792      -0.63794751       0.41451710       26
12
Lattice="2.8336 0.0 0.0 0.0 2.8336 0.0 0.0 0.0 31.5848" Properties=species:S:1:pos:R:3:force:R:3:Z:I:1 config_type=surface_100 energy=-41528.1678879 pbc="T T T"
Fe      1.33476151       1.51861416       7.76232399       0.54056929      -0.02864132      -0.02607304       26
Fe      0.11017334       0.09387626       9.18071010      -1.04904273      -0.30168990       0.21149946       26
Fe      1.39322079       1.42104825      10.69902873       0.40908873       0.90816376       0.18546421       26
Fe     -0.04905871       0.17373524      12.20931860       0.34904473      -0.85562430      -0.20560957       26
Fe      1.43333792       1.51394343      13.65029661      -0.08552209      -0.33477280       0.27010904       26
Fe      0.05610357      -0.09204492      15.16704172      -0.57763071       0.85793906      -0.67671614       26
Fe      1.37856954       1.37725343      16.52562689       0.37607088      -0.65835898       0.34900514       26
Fe     -0.05277095      -0.14405653      17.97693885       0.07259921       0.93475179      -0.28013686       26
Fe      1.37633550       1.40280874      19.36304103       0.35915817      -0.41716302       0.49660702       26
Fe      0.07148649       0.02415433      20.85917975      -0.74972390      -0.32685534      -0.19711671       26
Fe      1.40201962       1.37721944      22.35011491       0.56642919      -0.16516741      -0.10453411       26
Fe      0.04662140      -0.16575184      23.76517884      -0.21104103       0.38741845      -0.02249818       26
12
Lattice="2.8336 0.0 0.0 0.0 2.8336 0.0 0.0 0.0 31.5848" Properties=species:S:1:pos:R:3:force:R:3:Z:I:1 config_type=surface_100 energy=-41528.1250898 pbc="T T T"
Fe      1.51436014       1.72419186       7.66824295      -0.40495543      -0.04416692       0.47358125       26
Fe     -0.11854436       0.27468048       9.19336519       0.88107616      -0.40550153      -0.18194360       26
Fe      1.42340782       1.55401421      10.72460920      -0.46352721      -0.29015490      -0.04307138       26
Fe      0.00589520      -0.08272891      12.22007278      -0.19181201       0.83383137      -0.38335559       26
Fe      1.37622498       1.34561943      13.60603301       0.18372949      -0.09062624       0.55269590       26
Fe     -0.04035554      -0.06705100      15.09639364       0.05538799       0.29735116      -0.24494977       26
Fe      1.39871205       1.42462467      16.51918499       0.29697450      -0.51942762       0.45304971       26
Fe      0.09069880      -0.05418835      18.06225704      -0.52675989       0.10866973      -1.08502866       26
Fe      1.47169573       1.32811782      19.39637941       0.23204463      -0.30772248       0.36792229       26
Fe      0.06790216      -0.19970663      20.82397296      -0.60654662       0.65690785       0.41683315       26
Fe      1.33649294       1.28514632      22.35020348       0.69366871      -0.06225798       0.16434568       26
Fe     -0.02568990      -0.03191988      23.84808535      -0.14928005      -0.17690269      -0.49007925       26
12
Lattice="2.8336 0.0 0.0 0.0 2.8336 0.0 0.0 0.0 31.5848" Properties=species:S:1:pos:R:3:force:R:3:Z:I:1 config_type=surface_100 energy=-41528.2215498 pbc="T T T"
Fe      1.43188001       1.56399849       7.84303600      -0.16472723      -0.19898178       0.28663069       26
Fe     -0.05349873       0.07021017       9.31706942       0.52984985       0.88744478      -0.87018574       26
Fe      1.43419166       1.63173206      10.69395802      -0.58944776      -1.07420946       0.67133225       26
Fe     -0.03882045       0.11817514      12.15173237       0.30884476       0.47763923       0.09591320       26
Fe      1.40117143       1.54493866      13.58363762       0.14652640      -0.52455260       0.16822985       26
Fe      0.04631536       0.00587946      15.08006592      -0.17215001      -0.22266447      -0.77485875       26
Fe      1.47469606       1.26666325      16.41922352      -0.10880343       0.70800055       1.11472181       26
Fe      0.03638087      -0.13580857      17.97129778      -0.46008991       0.18861998      -0.43380449       26
Fe      1.31335077       1.33753039      19.42694908       0.95315626      -0.33562846      -0.04243889       26
Fe      0.00901340      -0.10222523      20.89851726      -0.24051024       0.29301577      -0.24655902       26
Fe      1.47549102       1.36118554      22.36230894      -0.47917289      -0.53407494      -0.05762999       26
Fe     -0.02937141      -0.16147937      23.76100406       0.27652420       0.33539140       0.08864906       26
12
Lattice="2.8336 0.0 0.0 0.0 2.8336 0.0 0.0 0.0 31.5848" Properties=species:S:1:pos:R:3:force:R:3:Z:I:1 config_type=surface_100 energy=-41528.2888675 pbc="T T T"
Fe      1.33301827       1.37222564       7.82668646       0.31039128       0.11438067       0.40952865       26
Fe      0.05666033       0.01300377       9.32510479      -0.46004234       0.36608755      -0.39034153       26
Fe      1.44404380       1.55397397      10.79187331      -0.02320241      -1.00658173       0.22299666       26
Fe     -0.01214072      -0.00359401      12.27760154       0.53025659       0.75359315      -0.17012064       26
Fe      1.49345667       1.46966340      13.69865577      -0.62586538      -0.08410130       0.17032273       26
Fe      0.00217133       0.10094845      15.18709142      -0.20050542      -0.16104130      -1.20992205       26
Fe      1.32741005       1.51376682      16.47345154       0.82909257      -0.10841159       0.61056037       26
Fe     -0.00364639       0.06703669      17.88315198      -0.15615569      -0.32062941       0.15750578       26