127
Lattice="11.3344 0.0 0.0 0.0 11.3344 0.0 0.0 0.0 11.3344" Properties=species:S:1:pos:R:3:force:R:3:Z:I:1 config_type=bcc_monovacancy_127_high config_name=bcc_monovacancy_127_0000 ecutwfc=1224.51225528 pbc="T T T" kpoints="3 3 3" degauss=0.136056917253 energy=-439522.56856
Fe      1.40965000       1.47650602       1.21204120       0.34704056      -0.65051737       0.78492796       26
Fe     -0.09476649      -0.11914716       3.05892545       1.63952535       0.83949345      -0.87681250       26
Fe      1.62559902       1.40899774       4.17241010      -1.84991435       0.03042283       0.04690772       26
Fe      0.01452917       0.02193303       5.83000201      -0.43834223       0.01114008      -1.39677902       26
Fe      1.49678404       1.40051269       6.87564842      -0.05714765       1.16018149       1.53401988       26
Fe     -0.00056827       0.10904009       8.50390402       0.47902582      -0.85537181       0.08176288       26
Fe      1.36108114       1.24655672       9.87972912       0.80578320       1.41149216       0.64117835       26
Fe     -0.05660831       2.94023513       0.02453627       1.01797095      -0.69666147      -0.06015944       26
Fe      1.34299364       4.23321291       1.40039552       0.98626333      -0.93711284       0.60497259       26
Fe     -0.03146299       2.65839211       2.76979441       1.01824580       1.20438801       1.24141292       26
Fe      1.42743021       4.39636776       4.24568076      -0.94120141      -1.58744895      -0.21408393       26
Fe      0.06900544       2.74897915       5.68859590      -0.44074801       0.55405472      -0.61943068       26
Fe      1.32081847       4.30318323       7.18936994       0.61324923      -0.37230679      -1.37490408       26
Fe      0.09145396       2.84793632       8.54464215      -0.71878787      -0.54953627      -0.16962647       26
Fe      1.39293986       4.37786886       9.80905500       0.20078336      -1.14225241       1.14810450       26
Fe      0.06955879       5.58910390       0.16368189      -1.47987811       1.10660561      -1.34188134       26
Fe      1.33463883       7.04856997       1.48975367      -0.20544271       0.40833488      -0.85112229       26
Fe     -0.05653813       5.63328447       2.77707075      -0.40997679       0.19106587       1.46708147       26
Fe      1.20525673       7.09788015       4.31216872       1.48704557      -0.61767564      -0.23602650       26
Fe     -0.10313192       5.65417065       5.68554974       0.68636395       0.02676287      -0.23343611       26
Fe      1.39469657       7.06918653       7.13006512       0.38428221       0.39243030      -0.47432045       26
Fe     -0.05090307       5.85695364       8.51769077       0.06660983      -1.80043630       0.25734454       26
Fe      1.31893258       6.99378180       9.94389541       0.73608137       0.60952576       0.65689885       26
Fe      0.04232858       8.56555695       0.04331028      -0.56474820      -1.07309231       0.36555610       26
Fe      1.50406834       9.92631806       1.21237664      -1.22616088       0.39919847       1.15339223       26
Fe     -0.01062868       8.50451548       2.93524243      -0.45169808       0.50638442      -0.90356611       26
Fe      1.49079809      10.02556003       4.46716280      -1.36578206      -0.83357194      -1.85314469       26
Fe      0.03085920       8.53853767       5.67337165       0.10825553       0.24775767       1.08053977       26
Fe      1.42427528      10.03142618       7.15054008       0.41072010      -1.08933808      -0.21381088       26
Fe      0.10913270       8.59500757       8.68599452      -0.92454991      -0.21174320      -1.28117863       26
Fe      1.48016563       9.98713065       9.98583102      -0.09437131       0.71972170      -0.15365812       26
Fe      2.96163481       0.07032113       0.03197707      -0.70831963      -0.53874586      -1.35788903       26
Fe      4.32670426       1.18321948       1.40702900       0.19318472       2.33030517       0.32784290       26
Fe      2.74566266      -0.14744516       2.77552554       0.22708754       0.52375042      -0.10796011       26
Fe      4.26647278       1.08862875       4.02199251      -0.43656714       2.74869076       0.41924510       26
Fe      2.90084910      -0.02721788       5.58587580       0.34579589       0.32570580       0.81413183       26
Fe      4.35122596       1.43797787       6.98528052      -1.25711773       0.67976701      -0.27953933       26
Fe      2.88002226       0.17361882       8.20325352       0.20201440      -1.33296424       2.50612003       26
Fe      4.26034883       1.48899661       9.80406954       0.37459790      -1.13094522       0.02953118       26
Fe      3.01959806       2.90379368      -0.21602868      -2.31461887      -0.85540164       1.56631782       26
Fe      4.26294410       4.23384405       1.33137865      -0.10855043       0.26346094       0.68281274       26
Fe      2.90197623       2.81169343       2.76073569      -0.30742269      -0.17431539      -0.45771960       26
Fe      4.09285897       4.21031333       4.27409555       1.69953464       0.60476485      -1.45751465       26
Fe      2.84687316       2.90016444       5.52473873      -0.29013999      -1.05411937       1.14549483       26
Fe      4.13196433       4.23173707       7.06482928       1.88605121      -0.22239039      -0.64599994       26
Fe      2.89265307       2.94361781       8.43570098      -0.94332411      -1.54094052      -0.12302806       26
Fe      4.21641626       4.23945223       9.83346029       1.25636183       0.93658088       0.21987894       26
Fe      2.75174895       5.60887054       0.06453903       0.66573059       0.59477406      -0.82105376       26
Fe      4.12248920       7.21866993       1.42662533      -0.10470663      -1.65795116       0.18993562       26
Fe      2.72228232       5.65929911       2.76778978       0.71009343       0.11118787       0.56282630       26
Fe      4.08505155       7.15722614       4.17629916       0.26826427      -1.42721960       0.11155065       26
Fe      2.81165639       5.62913244       5.74347036      -0.58475472       0.89981539      -0.79562220       26
Fe      4.26245909       7.10721929       6.92741214      -0.32732071      -0.33586783       0.78780991       26
Fe      2.90390865       5.58632771       8.47205719      -0.95446444       1.81732485      -0.00169461       26
Fe      4.11697207       7.20016797       9.84418803       0.94268288      -1.39154426       0.40455408       26
Fe      2.78768724       8.35689957      -0.05369862      -0.33949848       1.46281755       0.53596162       26
Fe      4.23795091       9.95799586       1.46480801      -0.51588721      -0.97832788      -0.16893099       26
Fe      2.56978583       8.45240391       2.81441075       1.51091081       0.87753112       0.43354789       26
Fe      4.30809943       9.82053620       4.32870470      -0.60226008      -0.03892547      -1.14383210       26
Fe      2.77212286       8.54496588       5.59065561       0.42150922      -0.74409061       1.49134085       26
Fe      4.36378561       9.88885528       7.05674107      -1.44710271      -0.28850014      -0.48817201       26
Fe      2.67250530       8.44940647       8.59495494       1.35050071       0.80393098      -1.46956310       26
Fe      4.23573906       9.97156408       9.92896896      -0.36223346      -0.22636506      -0.97397269       26
Fe      5.66921113      -0.02747699      -0.08641231       0.18286585       0.63803287       0.35522438       26
Fe      7.08640671       1.42412464       1.41511550      -0.45092135      -0.43881814      -0.12048575       26
Fe      5.78202570      -0.14312325       2.84644770      -0.82267972       0.08931267      -0.61376500       26
Fe      6.94851154       1.31675620       4.21466775       1.82865750       0.44833456       0.25122300       26
Fe      5.53997151       0.12728423       5.59049617       1.69123487      -1.95560829       0.62080879       26
Fe      7.18468699       1.40874108       7.02269127      -0.55714416      -0.36664419       0.39662608       26
Fe      5.69607305       0.03983204       8.31666991      -0.15813210      -0.00218389       1.79791611       26
Fe      7.25341780       1.35416685       9.98171815      -1.24734780       0.61217580      -0.17697597       26
Fe      5.59116967       2.89895894      -0.07467932       1.47033340      -0.52967321       0.19850176       26
Fe      7.16232014       4.38569342       1.39391161      -1.36178014      -0.74657558       0.13974023       26
Fe      5.80516930       2.83592975       2.79009600      -1.73323641      -0.01918737      -0.47923511       26
Fe      7.07078579       4.11509512       4.24010118       0.36484133       0.88993489       0.34330680       26
Fe      5.62032389       2.75130606       5.53050108       0.15411886       0.75994763       0.63002028       26
Fe      7.08563214       4.22300592       7.12647480       0.06731816       0.27120690      -0.58654524       26
Fe      5.77299494       2.64497579       8.40372656      -0.25386815       1.99973022       0.76637796       26
Fe      7.12921248       4.38132118       9.92699638      -0.71192663      -0.73091448       0.32477840       26
Fe      5.58283541       5.87696220       0.01442181       0.21752407      -1.17319461      -0.61240822       26
Fe      7.08853445       7.12040524       1.33320980      -0.20780375       0.04158039       0.79872655       26
Fe      5.53748450       5.67328386       2.76854699       0.60507030       0.05191134       0.55330499       26
Fe      7.14719799       7.03491960       4.29359194      -0.11611127      -0.08192254      -1.12598967       26
Fe      5.65942338       5.52644254       5.55006351      -0.02290596       0.78565609       0.72308856       26
Fe      7.17514375       6.96917321       7.17959346      -0.55096606       0.62738207      -0.97472242       26
Fe      5.54456268       5.68576956       8.52629079       1.13644429       0.11032064      -0.36886228       26
Fe      7.10158921       7.30515650       9.95304615      -0.62032208      -1.38905954      -0.03968086       26
Fe      5.49100687       8.53670961       0.11379944       0.99490969       0.19340995      -1.60725107       26
Fe      7.00338199       9.89965005       1.32541402       0.20959684       0.29542823       0.49400147       26
Fe      5.57193247       8.42677682       2.80033524       1.04460655       0.52218025       0.38034123       26
Fe      7.04845650       9.93417913       4.41099082       0.53291666      -0.78434175      -1.37354037       26
Fe      5.75070590       8.28920443       5.46667311      -0.52305956       1.25505545       2.19848934       26
Fe      6.97287452      10.01955989       7.05023487       1.06156426      -1.18144785       0.05397491       26
Fe      5.59086814       8.46959695       8.40542614       0.45092932       0.24994336       0.49937070       26
Fe      6.96549954       9.96534106       9.89772430       0.70664841       0.00585440      -0.12833918       26
Fe      8.63356400       0.05374906       0.18235694      -0.98917433      -0.57441529      -1.54513013       26
Fe     10.17178580       1.29772985       1.40297278      -1.35566529       0.05630459      -0.00640822       26
Fe      8.43639878      -0.08087553       2.72370920       0.36272377       0.42091401       1.69828894       26
Fe      9.84970676       1.33297475       4.28558040       0.54466634      -0.30777184       0.06268786       26
Fe      8.46050094      -0.06238158       5.72516107       0.66207679       0.38722998      -0.13582161       26
Fe      9.86271614       1.36559227       7.18813559       0.93587794       0.59276860      -0.26852678       26
Fe      8.64978152       0.01631553       8.72315621      -0.93170606      -0.44859476      -1.23721276       26
Fe     10.01816946       1.38842950      10.08934401      -0.02289362       0.51695499      -0.29144020       26
Fe      8.40674289       2.80950051       0.17574141       1.39520937       0.56749208      -1.27682575       26
Fe      9.79209793       4.25159380       1.59754722       0.88409643      -0.77243008      -1.27325037       26
Fe      8.47300227       2.70378720       2.91993917       0.05977301       0.08167495      -0.60795070       26
Fe      9.89488636       4.05614906       4.23177731       0.41662515       0.99752553       0.53096622       26
Fe      8.60907078       2.69702305       5.75458888      -1.01450998       1.11835941      -0.81915320       26
Fe      9.99135410       4.20891647       7.07871422      -0.75469693       0.25009531       0.60323530       26
Fe      8.49365875       2.86261876       8.51043707       0.66319780       0.05164163       0.74647300       26
Fe     10.06383076       4.25072917      10.02353934      -1.66446197       0.38006972      -0.71182327       26
Fe      8.59649798       5.72794833       0.01690136      -0.88867865      -0.21037460      -0.21174474       26
Fe      9.82489076       7.03116916       1.44180338       0.92122676       0.97183199       0.05516713       26
Fe      8.45891822       5.61365132       2.91324363       0.05676301       0.64702941      -0.04744585       26
Fe      9.85256014       7.17981825       4.26568270       0.35270855      -0.90533889      -0.56707556       26
Fe      8.57407161       5.68441554       5.63239447      -0.34977313      -0.75839289       0.73729622       26
Fe     10.07803622       7.16857959       7.11141889      -1.76558448       0.12597505       0.22295835       26
Fe      8.56084043       5.71094272       8.65525068       0.09454897      -0.14524367      -1.16712681       26
Fe      9.88357325       7.16423092       9.96642414       0.44642295       0.31055840       0.40021791       26
Fe      8.47488983       8.68390601       0.00857885       0.60933987      -0.87238249      -0.21353397       26
Fe      9.99299901      10.02974321       1.50089907       0.49556444      -1.02747940      -0.74052784       26
Fe      8.48314679       8.62964490       2.64679705      -0.19624742      -0.94820380       1.96291588       26
Fe      9.93969438       9.87692579       4.38300079      -0.36017324       0.72761061      -0.78968064       26
Fe      8.68642289       8.55318994       5.69013815      -2.02267963      -0.47489586       0.93264915       26
Fe     10.02824845       9.95895182       7.23477036      -0.86008439      -0.46627701      -0.37207436       26
Fe      8.39826549       8.59649814       8.50298301       1.04675136       0.03701746      -0.12748943       26
Fe     10.06625151       9.94296228      10.02667857      -0.42114721       0.77923219       0.39279668       26
127
Lattice="11.3344 0.0 0.0 0.0 11.3344 0.0 0.0 0.0 11.3344" Properties=species:S:1:pos:R:3:force:R:3:Z:I:1 config_type=bcc_monovacancy_127_high config_name=bcc_monovacancy_127_0001 ecutwfc=1224.51225528 pbc="T T T" kpoints="3 3 3" degauss=0.136056917253 energy=-439523.655151
Fe      1.37718908       1.36286051       1.27550071      -0.24458390       0.86892693      -0.25217122       26
Fe      0.22304845       0.10025177       2.71724205      -3.33039667      -0.65020241       1.14461911       26
Fe      1.39421081       1.42282778       4.15064341       0.23042226       0.68943873       1.43238597       26
Fe      0.01573049       0.08383589       5.54213925      -0.57683804      -0.61906687       1.05778910       26
Fe      1.38315734       1.43587453       7.02400365       0.02358062      -0.08561079       0.11944394       26
Fe     -0.01867153      -0.05432951       8.37829309      -0.78482177      -0.21803520       0.21085051       26
Fe      1.08545798       1.25620360       9.96150273       1.12629049      -0.15727001       0.10064789       26
Fe     -0.02914186       3.01172921      -0.17652148      -0.16896724      -1.63820355       0.78460143       26
Fe      1.51125035       4.07120510       1.33228186      -0.38895751       1.49721788       0.34442497       26
Fe      0.12261655       2.93044181       2.91810503      -1.21606570      -1.29916015      -1.52716686       26
Fe      1.55362174       4.21564571       4.08029365      -1.65375538       1.55179237       1.89781349       26
Fe     -0.11413465       2.86505324       5.55812685       1.79520205      -0.29214648       1.14771858       26
Fe      1.49822897       4.37584269       7.02817984      -1.52724297      -0.74496762       0.79257236       26
Fe     -0.07742979       2.69462824       8.35275236       0.79234379       0.99181563       0.93746559       26
Fe      1.40069003       4.30951943       9.87276180       0.20850824      -0.28361633       0.04243477       26
Fe     -0.08156911       5.50608422       0.16262257       0.34283629       1.32953285      -1.19547990       26
Fe      1.40306330       7.13700799       1.41203641       0.64019696      -0.70678108       0.47062783       26
Fe      0.02573328       5.62208441       2.79074502       0.13072671       0.41478013       0.10606520       26
Fe      1.47714282       7.11212891       4.25288059      -0.40954305      -0.18745964       0.20096359       26
Fe     -0.01899276       5.77654409       5.62882814       0.89468218      -0.43808743       0.04943357       26
Fe      1.38989122       7.16659587       7.27236998       0.36992209      -0.28665897      -1.85660076       26
Fe     -0.05815312       5.67537394       8.47755576       0.45364235       0.23586529       0.34883287       26
Fe      1.49423157       7.01612008      10.07997038      -0.86003579      -0.54707392      -0.62835678       26
Fe      0.05304653       8.40522311       0.03894620      -0.77603143       0.43864588      -0.26754822       26
Fe      1.27435675       9.99255580       1.36014566       1.30203079      -0.32873585      -0.96177512       26
Fe      0.04853135       8.59474334       2.78721341      -0.54361193      -0.50744063      -0.09830304       26
Fe      1.19975962       9.93451829       4.27487621       2.07973780       0.45045238      -0.16179206       26
Fe      0.03867531       8.50497856       5.64956058      -0.30693598      -0.05062708       0.08419489       26
Fe      1.35175011       9.95784135       7.01131951       0.13477697      -0.74181313       0.47655114       26
Fe      0.05770651       8.50412770       8.61659338      -0.62575482       0.11173526      -0.76875238       26
Fe      1.42174009       9.82187436       9.97347269      -1.05149170       1.03340811      -0.23389531       26
Fe      2.82049415      -0.03673324      -0.04519725      -0.41898645       0.00015761       0.68014445       26
Fe      4.40437573       1.49331846       1.48250240      -1.81412434      -0.60040040       0.29462836       26
Fe      2.64677255       0.14144321       2.71241878       2.44716361      -1.13039937       0.73395250       26
Fe      4.01137287       1.53376626       4.23054920       1.48517946      -1.19323790       0.43846976       26
Fe      2.75866723      -0.02548736       5.71780543       0.37464238       0.55121391      -1.18112466       26
Fe      4.10530068       1.45060683       7.22916292       0.30812871      -0.54951596      -0.80663990       26
Fe      2.74706181      -0.19162088       8.49476458      -0.55346774       1.83202693      -0.35591601       26
Fe      4.19661513       1.21599632       9.95779191       0.32698055       1.75892687      -0.33366311       26
Fe      2.76378250       2.62839783      -0.00524397       0.88949395       1.03858116      -0.26713350       26
Fe      4.44533217       4.22877927       1.47679207      -0.83223368      -0.01522247       0.24248536       26
Fe      2.78466423       2.88410916       2.83249041       1.36400363      -0.55094266      -0.99735790       26
Fe      4.16256389       4.40290435       4.31394702       1.40441417      -1.43371009      -0.65755705       26
Fe      2.72154404       3.01321879       5.67209737       0.60646409      -1.86991522       0.22704795       26
Fe      4.16361223       4.16594206       7.27946248       0.71644868       0.64218417      -0.60332297       26
Fe      2.70844399       2.66636033       8.70190368      -0.09154721       0.67766642      -1.12092614       26
Fe      4.29002302       4.02585099       9.97998660      -0.17855617       1.42547588       0.14687915       26
Fe      3.07200186       5.53431514       0.16720273      -1.43471205       0.50121444      -1.23530989       26
Fe      4.27040199       7.10215004       1.52828125       0.18179653       0.95421042      -0.36478245       26
Fe      2.82070492       5.69970010       2.79298136       0.37776575       0.26186891       0.10115697       26
Fe      4.27023446       7.13172470       4.30543969      -0.23710970       0.16555359      -0.24212464       26
Fe      2.89063465       5.63006369       5.67476759      -0.72690922       1.73127414       0.55356981       26
Fe      4.28861478       7.18827359       7.07577255      -0.45435403      -0.40081287       0.40534263       26
Fe      2.79634919       5.78262641       8.50594546       0.81673765      -1.05269806       0.59651624       26
Fe      4.25185977       7.06390009       9.97237514       0.18798055       0.25893451      -0.03613531       26
Fe      2.78640467       8.51959332      -0.07383493       1.01330388      -0.12195256       1.73392752       26
Fe      4.17223339       9.99927257       1.44321542       0.19238690      -0.59904852       0.09768109       26
Fe      2.69008283       8.69900082       3.00269585       0.91055951      -1.23837156      -1.91704483       26
Fe      4.30764537       9.75710712       4.18591230      -0.30363597       2.32982566       0.60210787       26
Fe      2.87542048       8.63313668       5.65341858      -0.72093037      -1.40516416       0.34891078       26
Fe      4.24935516       9.93951847       6.96616404      -0.09281888      -0.26138477       1.03102469       26
Fe      2.81478027       8.50399398       8.57177006       0.37789997      -0.09212134      -0.76203614       26
Fe      4.12432443      10.00930584       9.83518133       1.39750253      -1.51043721       1.11886180       26
Fe      5.60046509       0.10161801       0.11625587       0.81463448      -1.20166958      -1.07292108       26
Fe      7.12510205       1.47324360       1.52662705       0.16041832      -0.68711831      -1.16803852       26
Fe      5.78148933      -0.03262396       2.84641537      -1.03672226       0.75150130       0.55864106       26
Fe      7.09601708       1.53849602       4.26205818       0.14809554      -1.58946778       0.41611119       26
Fe      5.58774994      -0.01238313       5.60957547       0.28375131       0.54281001      -0.12343120       26
Fe      7.13986948       1.34669855       7.07155410      -0.88300192       0.20135697       0.05704018       26
Fe      5.56472489      -0.02679372       8.45682046       0.67008758       0.53445083      -0.00558624       26
Fe      7.11910522       1.35191713       9.84628571      -0.52424253      -0.24340890       0.79359849       26
Fe      5.71881614       2.73212266       0.07015422       0.15956626       0.69624727      -0.65208677       26
Fe      7.07220099       4.33804934       1.38222435       0.73070031      -0.86730919       1.06870781       26
Fe      5.67965800       2.85862931       2.97430114      -0.12426321       0.37764028      -0.45088253       26
Fe      7.02966582       4.19921150       4.36969432      -0.10392913       0.84112816      -0.56542029       26
Fe      5.53263668       2.66552177       5.75223201       0.38993376       1.52923686       0.02735628       26
Fe      7.11684689       4.18971912       7.13387609      -0.89882783       0.68448087      -0.14937235       26
Fe      5.71727452       2.84046509       8.59609392      -0.54698651      -0.98944481      -0.78773689       26
Fe      7.08915350       4.16274333       9.94061189      -0.29160757       0.91015096      -0.32375305       26
Fe      5.79986141       5.71618083       0.04052442      -1.01169745      -0.11734258      -0.19381130       26
Fe      7.34858582       7.14198928       1.36442385      -2.12956347      -0.48926550       0.90413175       26
Fe      5.71712365       5.82447566       2.94113299       0.15243222      -1.05153644      -0.75993324       26
Fe      7.25232482       7.04483676       4.21896559      -0.83531669       0.44696519       0.76042920       26
Fe      5.63084181       5.70828891       5.66425658       0.21491080      -0.86337334       0.54067136       26
Fe      6.99622105       6.96707529       7.02193965       1.43779917       0.73013801       0.59459819       26
Fe      5.69503776       5.79729977       8.52346792      -0.53606909      -1.42284435       0.37400937       26
Fe      7.02402457       7.19042671       9.97352670       0.85519466      -0.65355693      -0.87591981       26
Fe      5.63944111       8.54854517      -0.02195717      -0.37383042       0.23019369       0.59934342       26
Fe      7.02101612       9.96739096       1.35675588       0.78434020      -0.04329995       0.14314000       26
Fe      5.78229539       8.55769778       2.93754592      -0.54967536      -0.91555362      -1.50520656       26
Fe      7.11002096       9.89159750       4.21352155       0.52287830       0.83308009       0.87518910       26
Fe      5.81865669       8.46210298       5.70387963      -1.13332143       0.39197778      -0.58893251       26
Fe      7.02185258       9.95980955       7.04924433       0.33928534      -0.66249717      -0.30559643       26
Fe      5.68763552       8.63162153       8.56695624      -0.70275396      -1.10935772      -0.91744621       26
Fe      7.00934704       9.96844326       9.83359378       0.40916715      -0.29649498       1.27702450       26
Fe      8.53264452      -0.05168222       0.01956788      -0.47114231       0.51214034      -0.44422517       26
Fe     10.08802984       1.32356827       1.37075978      -0.20510307       0.59987384      -0.85844274       26
Fe      8.64278537       0.08781997       2.82611033      -0.84364938      -0.84083788      -0.13781498       26
Fe      9.96794320       1.38533579       4.24674734      -0.49165148       0.58894408      -0.47467937       26
Fe      8.55564887      -0.04572552       5.71440013      -0.80762643       0.24248588      -1.21775491       26
Fe      9.88253215       1.38535506       6.99116793      -0.07543359      -0.13765609       0.34847240       26
Fe      8.43277501      -0.20784156       8.47614440       1.01918142       1.65876518      -0.03837114       26
Fe      9.83835101       1.42919918       9.87466586       0.50041354      -1.18135812       0.16422613       26
Fe      8.49718917       2.84809661      -0.08910197       0.16635371      -0.73000791       0.86080481       26
Fe      9.89865712       4.06221964       1.46432295      -0.03114634       1.31862726      -0.14776335       26
Fe      8.56037977       2.70537632       2.74549683      -0.07265192       1.49231247       1.32662956       26
Fe     10.02096451       4.24425897       4.31115415      -0.76051585       0.18273421      -1.20431601       26
Fe      8.42041984       2.96835846       5.64161188       0.96245029      -1.76367055       0.33595473       26
Fe      9.96242619       4.16120494       7.12353508      -0.17447609       0.82236142      -0.57429779       26
Fe      8.48930259       2.74276115       8.48137913      -0.22881686       0.22462134      -0.55353613       26
Fe      9.86763590       4.20274939       9.71864752       0.27282669       0.44522173       1.31120551       26
Fe      8.51922043       5.58491095      -0.07440474       0.50531561       0.47552886       0.33116862       26
Fe      9.86395869       7.08879163       1.46593976       0.57125720      -0.27505918      -0.25433943       26
Fe      8.48877136       5.56862760       3.05818127       0.76996568      -0.07301521      -1.98193304       26
Fe      9.99927901       7.26224034       4.06366936      -0.41340124      -1.36487241       1.33111845       26
Fe      8.72869914       5.56939704       5.71343724      -1.56194720       1.00656733       0.02158724       26
Fe      9.96282531       7.19399958       7.04129506       0.17614293      -1.37523755       0.56926743       26
Fe      8.45908299       5.67555972       8.52993545       0.17536029       0.25312639      -0.42395099       26
Fe      9.93884308       7.18492373       9.94928612      -0.31683627      -1.39978104      -0.31639275       26
Fe      8.48923500       8.50398729      -0.03968430       0.41510383       0.84352263      -0.08909207       26
Fe     10.05663904       9.96726063       1.34231265      -0.66477774       0.18385856      -0.15367663       26
Fe      8.48869709       8.70968476       2.76532391       0.65181681      -1.26628269       0.01797844       26
Fe      9.88000696       9.90843432       4.21702752       0.43506562       0.57742554       0.16142902       26
Fe      8.48667366       8.36082660       5.70588035       0.22029777       1.22260941      -0.83572190       26
Fe      9.89360154       9.86003171       6.99929230       0.54771413       0.27351164       0.39710868       26
Fe      8.49830990       8.43999437       8.31768169      -0.62037607       0.31130351       1.63557203       26
Fe      9.91981986       9.86989759       9.93052272       0.37956733       0.73998688       0.08064085       26
127
Lattice="11.3344 0.0 0.0 0.0 11.3344 0.0 0.0 0.0 11.3344" Properties=species:S:1:pos:R:3:force:R:3:Z:I:1 config_type=bcc_monovacancy_127_high config_name=bcc_monovacancy_127_0002 ecutwfc=1224.51225528 pbc="T T T" kpoints="3 3 3" degauss=0.136056917253 energy=-439524.347643
Fe      1.19523318       1.39396267       1.33239000       1.62285869       0.28496307      -0.46020149       26
Fe     -0.03544432      -0.00256964       2.91628113       0.27027976      -0.36198407       0.11706772       26
Fe      1.47110751       1.36811347       4.20982748      -1.27172340       0.24798032       0.50924940       26
Fe     -0.08752176      -0.08568981       5.70791148       1.50810728       0.94072678      -0.42293541       26