128
Lattice="11.3344 0.0 0.0 0.0 11.3344 0.0 0.0 0.0 11.3344" Properties=species:S:1:pos:R:3:force:R:3:Z:I:1 config_type=phonons_128_high config_name=bcc_bulk_128_0000 ecutwfc=1224.51225528 pbc="T T T" kpoints="3 3 3" degauss=0.136056917253 energy=-442987.112269
Fe     -0.13429455      -0.05800057      -0.00294372       1.44562690       0.26336992      -0.64039314       26 
Fe      1.46542849       1.27080792       1.36017264      -0.35100108       1.35966001      -0.30232213       26 
Fe      0.08918745       0.08010551       2.73522915      -1.06886696      -1.27703452       0.46639245       26 
Fe      1.37305213       1.47935249       4.14162160       0.23482450       0.24738177       0.73574096       26 
Fe     -0.08319026       0.11184474       5.55330388      -0.23113034      -0.33058138       1.19999913       26 
Fe      1.32272833       1.44342360       7.31795464      -0.76121982       0.01776375      -3.06952020       26 
Fe     -0.20144617      -0.09808292       8.59951917       1.30540639       1.53324984      -1.12852504       26 
Fe      1.45444704       1.28674395       9.85667206      -1.25852258       0.86287995       1.45509704       26 
Fe      0.05841235       2.91514469       0.01794275      -0.49041272      -1.50975895      -0.14836551       26 
Fe      1.42494880       4.19029541       1.46693050      -0.36873578       0.79525042      -0.50426763       26 
Fe     -0.11081210       2.77531586       2.82973652       1.10160045       0.89352107      -0.99832026       26 
Fe      1.46014986       4.35546856       4.28321636      -0.72706451      -0.85609301      -0.90942591       26 
Fe     -0.02188282       2.79712150       5.64795014      -0.14353055       0.13743806      -0.20253813       26 
Fe      1.33528262       4.21748462       6.93536519       0.33527879       0.58081965       1.25735299       26 
Fe     -0.05154009       2.75880531       8.57215982      -0.20762300       1.02885802       0.18231255       26 
Fe      1.25120291       4.34405278       9.97532104       1.37130968      -0.66652403      -0.86755627       26 
Fe      0.00235900       5.70226834       0.01613497      -0.21796732      -0.20150558       0.56483690       26 
Fe      1.43121917       7.01457426       1.45728828       0.45200147       0.29225086       0.38235132       26 
Fe     -0.14570440       5.45761445       2.81354600       1.76044356       2.00752015      -0.31084457       26 
Fe      1.44586091       7.02482138       4.30622989       0.05988665       0.11223431      -0.32476889       26 
Fe     -0.09868289       5.68258008       5.57237450       0.79957425       0.18836287       0.89252657       26 
Fe      1.42649332       7.10334746       6.95556067       0.05904795      -0.59343580       0.64990879       26 
Fe      0.00922266       5.79450393       8.41563127       0.38889169      -1.57155593       0.21002133       26 
Fe      1.53793578       6.93413165       9.94277649      -0.37096416       1.27127962       0.20692881       26 
Fe     -0.01081892       8.46803488       0.01088542       1.12300899      -0.08616512      -0.11987126       26 
Fe      1.33282505       9.87172483       1.46146212       1.24866240      -0.34493302      -0.20935953       26 
Fe      0.08467879       8.40678172       2.95238476      -0.70928945       0.56329244      -0.94772455       26 
Fe      1.32991119       9.91011505       4.32419200       0.27798176       0.99090186      -0.92478980       26 
Fe     -0.00182223       8.61120471       5.62735471      -1.08180681      -0.77227993       0.58637606       26 
Fe      1.30603862       9.97795417       7.12376843      -0.49418299      -0.03641016      -0.22759071       26 
Fe     -0.07059569       8.47578492       8.50890739       1.63575277       0.61395011       0.08659295       26 
Fe      1.46323622      10.07139624       9.93116236      -0.92152270      -2.03168543       0.06355844       26 
Fe      2.90078962      -0.10573876      -0.02628899      -0.65874696       0.60005664       0.32544046       26 
Fe      4.06942267       1.33045731       1.45164886       1.47649531       0.91468228      -0.24830197       26 
Fe      2.81247653      -0.02172731       2.91607884       0.19953637      -0.14056992      -0.24536911       26 
Fe      4.25214235       1.62384125       4.12850446      -0.06274520      -1.35254011       0.78606953       26 
Fe      2.55559878       0.10706159       5.66542525       1.79373909       0.00944469      -0.02540327       26 
Fe      4.20700836       1.41157208       6.95003834      -0.75530448       0.46286644       0.69215382       26 
Fe      2.71095125       0.06339295       8.33491015       1.19671301      -1.16308092       1.21759602       26 
Fe      4.14096767       1.39054553       9.76687441       0.67588388       0.38581202       0.56244732       26 
Fe      2.75817723       2.85107787      -0.11708801       0.40411416      -0.41512105       0.81130670       26 
Fe      4.31284646       4.23638015       1.38049865      -0.56158986      -0.60434010       1.35391334       26 
Fe      2.73020600       2.95615798       2.81595778       1.06701679      -0.87208244      -0.05718879       26 
Fe      4.42833740       4.23405526       4.20802459      -0.40351484       0.53636888      -0.17622032       26 
Fe      2.86193934       2.95273828       5.57168486      -0.62874656      -1.28304602       0.44786662       26 
Fe      4.31518405       4.17488228       6.97109845      -0.24562854       0.67562111       1.07815353       26 
Fe      2.61294654       2.83697674       8.52207918       1.73570415       0.82485102      -0.40464972       26 
Fe      4.27349871       4.25741629       9.92167608       0.13543851      -1.02932134      -0.39422596       26 
Fe      2.91359789       5.58628389       0.08302305      -0.49841888       0.64317841      -0.46296106       26 
Fe      4.33704676       7.02562031       1.47611534       0.13606021       1.01222427       0.03349299       26 
Fe      3.02444794       5.68534182       2.86367750      -1.21444488      -0.18999038      -0.09042467       26 
Fe      4.25501785       7.03385718       4.42057396       0.80097370       1.57239977      -0.68415049       26 
Fe      2.99172885       5.55955861       5.58903850      -0.94291607       1.08505925       1.33708084       26 
Fe      4.33025915       7.08247925       7.19845672      -0.49544052      -0.47589422      -0.73921632       26 
Fe      2.96961991       5.49029136       8.57759533      -0.97632704       1.29735292      -1.36224937       26 
Fe      4.34109043       7.09437664       9.88909925      -0.74445622      -0.98676392       0.48368029       26 
Fe      3.01764585       8.50156482       0.11766633      -1.50146972      -0.51904299      -0.50176517       26 
Fe      4.32520626       9.91373130       1.48833191      -0.20416847       0.02157078      -0.11913875       26 
Fe      2.87225922       8.57022726       3.08439036       0.22351037      -0.71458386      -1.48897158       26 
Fe      4.34475141      10.01327559       4.38081884      -0.90683630      -0.09193776      -0.28619386       26 
Fe      2.71958514       8.69145823       5.74264899       1.03674411      -1.56037369      -0.34134196       26 
Fe      4.15992485       9.78585988       7.16842063       0.44049604       1.38488999      -0.71040659       26 
Fe      2.65143854       8.46209522       8.46934305       1.06881348      -0.20574379       0.50416221       26 
Fe      4.08693902       9.86697380       9.80418330       1.25567868       0.09524677       0.43506484       26 
Fe      5.61866688       0.01023266      -0.13915004      -0.24594915      -0.11228624       0.65119949       26 
Fe      7.12767060       1.30462706       1.45437524      -0.98206960       0.76324430      -0.66760929       26 
Fe      5.69417138       0.08112356       2.90769862      -0.26655603      -0.19809604      -0.60419664       26 
Fe      7.24965773       1.44707732       4.23243362      -1.37078954      -0.05423331       0.14943457       26 
Fe      5.60334674       0.12312796       5.71281199       0.93526550      -0.35767361      -0.28898453       26 
Fe      7.21092195       1.50391297       7.21758108      -1.31558359      -0.64097601      -1.70873148       26 
Fe      5.55667320      -0.02485522       8.41947316       0.25312433       0.08022176       0.29192896       26 
Fe      7.04385958       1.47991710       9.87032083      -0.66728816      -0.61138467       0.53409937       26 
Fe      5.55334219       2.81143237       0.03737619       0.49870890      -1.17240785      -0.07589819       26 
Fe      7.09537193       4.26546791       1.38387386       0.03419181      -0.11319513       0.24218274       26 
Fe      5.85770582       2.89492566       2.82219562      -1.43502650      -0.54590741      -0.39719558       26 
Fe      7.22033745       4.25696249       4.24089859      -0.78808836       0.18817749       0.39669370       26 
Fe      5.69100094       2.84721104       5.65001795       0.89234402      -0.30778958      -0.41374706       26 
Fe      7.17444919       4.20325994       7.08167414       0.28658441       0.39583495      -0.24855085       26 
Fe      5.65004448       2.79049531       8.31768733      -0.32858132       0.35131476       1.84473358       26 
Fe      7.01820575       4.15534793      10.10375036       0.87853051       0.30639939      -1.13858011       26 
Fe      5.63205502       5.52268767       0.07602423       0.71241617       1.77867603      -0.85953469       26 
Fe      7.19199787       7.03656299       1.32554559      -1.23350832       1.06655142       1.40086296       26 
Fe      5.78580987       5.80279643       2.93399031      -0.51695936      -1.30627259      -1.05439808       26 
Fe      7.09152198       7.02047068       4.29212466       0.62712779       1.27814704      -0.22449947       26 
Fe      5.76237237       5.70580860       5.69600045      -0.10882348      -0.67743605       0.21379931       26 
Fe      7.16465440       7.08966870       7.00102667      -0.29510865      -0.52558233       1.51485231       26 
Fe      5.93854369       5.52200746       8.49366261      -1.74331770       0.71809316       0.20865453       26 
Fe      7.10455379       7.08937431       9.90296116       0.54527749      -0.37394561      -0.06556467       26 
Fe      5.79412066       8.44510785      -0.12161701      -1.52344031       0.10987866       1.67501146       26 
Fe      7.00186863       9.89593341       1.33870464       0.91971033       0.39532485       0.29937668       26 
Fe      5.75356435       8.57933855       2.86213261      -0.43496560      -0.82811735       0.32527437       26 
Fe      7.09458140      10.03939926       4.24085735      -0.05272278      -0.38058317       0.53325399       26 
Fe      5.77972650       8.62676174       5.76245081      -1.08248635      -0.96733127      -0.60011347       26 
Fe      7.10095946       9.93778903       7.12750211      -0.72325928      -0.21048207      -0.47795959       26 
Fe      5.67170652       8.40579267       8.59773570       0.19616360       0.69023963      -1.62030970       26 
Fe      6.97775387       9.84476955       9.88423271       1.09719409       0.78388975      -0.11182242       26 
Fe      8.39071368       0.02604260      -0.10096070       0.38732794      -1.12200858       0.24924711       26 
Fe      9.91040859       1.35462628       1.27781945       0.61703570       0.03738872       1.48343548       26 
Fe      8.59891367       0.00749978       2.75687273      -0.87794918      -0.25269804      -0.39219916       26 
Fe      9.95520466       1.41438606       4.05016994      -0.86847775       0.35196062       1.47355371       26 
Fe      8.43583579       0.05825631       5.68840723       0.83990920      -0.17320930       0.10175783       26 
Fe      9.86129799       1.50234719       7.21391137       0.12617226      -1.02044975      -0.86004556       26 
Fe      8.31033525      -0.07383581       8.44504724       1.63096230       0.74751018       1.34806665       26 
Fe      9.85334206       1.41613703       9.98765512       0.15221110      -0.13332172      -0.69590968       26 
Fe      8.57612585       2.70171961       0.16782930      -1.56829911       1.22754105      -2.16904044       26 
Fe      9.86540563       4.19670565       1.29818692       0.30921655       0.58397362       0.83761680       26 
Fe      8.41877714       2.89106613       2.76150532       1.66266991      -0.50413393       0.22121488       26 
Fe      9.93336631       4.33798162       4.20780549      -0.78530308      -1.86818435       0.36604229       26 
Fe      8.55765455       2.79919614       5.62690623       0.22235131       0.33825921       0.16762050       26 
Fe      9.91331956       4.17979468       7.08350721       0.16326531       0.80844095       0.25978966       26 
Fe      8.44227373       2.89519909       8.65161201       0.67695088      -0.01562254      -0.52987967       26 
Fe      9.93551124       4.24037565       9.91028949      -0.31009149       0.49150673       0.47814702       26 
Fe      8.42074240       5.79364589      -0.03863687       1.42542908      -1.63725199      -0.03627749       26 
Fe      9.88872278       7.02462213       1.60370828       0.63342031       0.77417021      -1.62389356       26 
Fe      8.49993052       5.62514117       2.74617594      -0.15381676       0.34404625       0.85945292       26 
Fe      9.88038026       7.13693607       4.21656924      -0.03158163      -0.19476646       0.56576918       26 
Fe      8.58104242       5.62865574       5.63570203      -0.32377722       0.47976913       0.58735231       26 
Fe      9.94586980       7.15990768       7.15315863      -0.10208591      -0.68660820      -1.55782212       26 
Fe      8.62223056       5.77258898       8.63475580      -0.72916099      -1.20521102      -1.06134597       26 
Fe     10.07585444       7.11144368       9.92916175      -1.27983471      -0.16782001       0.43115728       26 
Fe      8.59008762       8.45200589       0.03909493      -0.39780802       0.53456756      -0.62108030       26 
Fe     10.01096962       9.83923571       1.31174722      -1.19778978       0.42519926       1.28970389       26 
Fe      8.48528427       8.63618600       2.91301497      -0.05839284      -1.07090970      -0.89185834       26 
Fe      9.81770211      10.04950065       4.18181101       1.09567457      -0.85512756       0.83894786       26 
Fe      8.41593457       8.43713034       5.71799351       1.30883650       1.31906563      -0.82650141       26 
Fe      9.87515368       9.95180708       7.11759893      -0.10034321       0.11155914      -1.19096402       26 
Fe      8.59666459       8.49104933       8.47264529      -1.40326977       0.02207935       0.59384589       26 
Fe      9.89324595       9.91570450       9.81466497      -0.86718732      -0.61122063       1.74637114       26 
128
Lattice="11.3344 0.0 0.0 0.0 11.3344 0.0 0.0 0.0 11.3344" Properties=species:S:1:pos:R:3:force:R:3:Z:I:1 config_type=phonons_128_high config_name=bcc_bulk_128_0001 ecutwfc=1224.51225528 pbc="T T T" kpoints="3 3 3" degauss=0.136056917253 energy=-442987.330681
Fe      0.04999590      -0.03193493       0.07144451      -0.01795067       1.12423875      -0.16075694       26 
Fe      1.50017115       1.39918166       1.44581865      -0.79666993       0.31947345      -0.23952217       26 
Fe     -0.05799486       0.04388066       2.93359761       0.70583800       0.14243680      -0.87281855       26 
Fe      1.50776155       1.32758453       4.40196505      -0.57964209       0.50166053      -0.86091125       26 
Fe     -0.00629926       0.04508038       5.75484235      -0.15872474      -0.60385391      -0.27008281       26 
Fe      1.45889491       1.36228395       7.14642712      -0.03953894      -0.08647854       0.28281337       26 
Fe     -0.10462222       0.07473316       8.59722720       0.98424630      -1.20014954      -0.03537684       26 
Fe      1.45506666       1.37190261       9.90909023       0.16605341       0.23724006       0.42900398       26 
Fe     -0.10676329       2.76835647      -0.13711315       1.02228757       0.44194614       1.55724183       26 
Fe      1.35127304       4.25801253       1.35227699       0.15926904      -0.48708546       0.13165128       26 
Fe      0.04520865       2.86430964       2.79403893      -0.05558159      -0.66674412       0.30602452       26 
Fe      1.38506153       4.18237582       4.34498700      -0.18857756       0.57443894      -0.54761951       26 
Fe      0.01389237       2.83753257       5.82414293      -0.03287207      -0.87648443      -1.00770350       26 
Fe      1.40529836       4.19689764       7.06421669      -0.57866121       1.04420057       0.85851062       26 
Fe      0.00337121       2.77319112       8.62177093       0.46295540       0.86758378      -1.42278162       26 
Fe      1.36003608       4.34155104       9.95251529       0.41423042      -1.04955952      -0.63085537       26 
Fe     -0.19579877       5.66947200      -0.05106085       2.23307634       0.20124178       1.40666492       26 
Fe      1.35285824       6.93574342       1.42205362      -0.08361227       1.07187515      -0.62624642       26 
Fe     -0.05541401       5.60289420       2.78766454      -0.48564076      -0.06843994       0.44913932       26 
Fe      1.27909253       6.96118572       4.08763272       0.69820439       0.92291238       1.82465506       26 
Fe     -0.10159711       5.63028975       5.70397146       0.49387317       0.37776627       0.20634517       26 
Fe      1.45202063       7.23895334       7.04928741      -0.79811849      -1.37412323      -0.05502315       26 
Fe     -0.02238704       5.76137415       8.57497340       0.46508607      -1.02116040      -1.77812221       26 
Fe      1.46390244       6.98609922       9.91035609      -0.34854260       1.46274453       0.73398901       26 
Fe      0.00141086       8.53499881       0.07450451       0.67679405      -0.53072813      -0.20819379       26 
Fe      1.43802808       9.94222844       1.47446645      -0.88366269      -0.46359509      -0.47616470       26 
Fe     -0.17978838       8.43728832       2.87960971       1.46899026       0.58213837      -0.61939263       26 
Fe      1.19206939       9.91598524       4.32093856       1.97426987      -0.26750065      -0.34982018       26 
Fe     -0.02604536       8.44864174       5.71134963      -0.32122077       0.64877725      -0.26965704       26 
Fe      1.26547842       9.94636022       7.23302932       1.40849528       0.29805564      -1.25512127       26 
Fe      0.21142039       8.50921685       8.57233703      -2.15909747       0.16900118       0.52974109       26 
Fe      1.43196744       9.98913742      10.00338749       0.09260419      -0.38451490       0.04638527       26 
Fe      3.05644009       0.07268126       0.04557729      -1.86348541      -0.99874218      -1.46973716       26 
Fe      4.24757134       1.32122869       1.39139477       0.23992814       1.18136635       1.49803164       26 
Fe      2.81339343      -0.10277567       2.70283260       0.41410675       0.75363738       1.95264663       26 
Fe      4.34675426       1.38360767       4.32016073      -0.41561136       0.31217383      -0.53558109       26 
Fe      3.02019342      -0.01234767       5.70796822      -1.95259907      -0.07841993      -0.09927646       26 
Fe      4.28517066       1.50445592       6.95099268       0.29854364      -0.85994272       1.78039738       26 
Fe      2.86500158      -0.15926851       8.56972211       0.51385990       1.54256957      -0.79040775       26 
Fe      4.28047173       1.48393863       9.84717681      -0.02896476      -0.72154898      -0.61621526       26 
Fe      2.80364206       2.85422265      -0.01239953      -0.06176870      -0.37695817      -0.27222814       26 
Fe      4.19090053       4.17604786       1.34376671      -0.05481026      -0.06895647       0.34666209       26 
Fe      2.77486970       2.84211874       2.95142594       0.62424867      -0.67499376      -0.80898886       26 
Fe      4.20523810       4.26964051       4.19315030       0.42227772      -0.58416877       0.63390650       26 
Fe      2.77665688       2.86103879       5.79022201       0.77637184      -0.55834950      -1.46674722       26 
Fe      4.33483650       4.13149415       6.97513150      -0.73820716       1.75550602       0.84837944       26 
Fe      2.79748057       2.90440799       8.48080426       0.56702028      -0.41159633       0.45138184       26 
Fe      4.34582493       4.22007561       9.90481813      -1.25154461      -0.15992621      -0.48190134       26 
Fe      2.78852264       5.62336191      -0.08827686       0.31104074       0.12320109       0.74186455       26 
Fe      4.10322203       7.14478668       1.32299964       0.83695989      -0.86825124      -0.02438666       26 
Fe      2.80853565       5.61004778       2.86131018      -0.27228188       0.08621911      -0.77650451       26 
Fe      4.16611266       7.19905392       4.17159189      -0.78876919      -1.55622496       0.16008459       26 
Fe      2.79574437       5.68095428       5.65925122       0.04953590       0.18328417      -0.13627824       26 
Fe      4.28267630       7.17914959       7.16772028      -0.63928576      -1.01387852      -1.05676632       26 
Fe      2.66930411       5.78880624       8.29299833       1.61114038      -1.56131600       1.29043511       26 
Fe      4.13772141       7.01041729       9.84964106       1.04721879       0.77882904       0.24155308       26 
Fe      2.83542581       8.62028453      -0.01618906      -0.32047566      -0.96560040      -0.17814916       26 
Fe      4.29966604       9.88299252       1.33103256       0.18127511       0.16277885       0.83747205       26 
Fe      2.70186475       8.45701575       2.72919476       0.31154365       0.39130750       1.01120869       26 
Fe      4.24382926       9.99945781       4.21626636      -0.10109397      -1.14798932      -0.26749088       26 
Fe      2.78085526       8.50504990       5.69407744      -0.14394475       0.55457460      -0.92692870       26 
Fe      4.24784578       9.86728935       6.93986571       0.54806046       0.05750761       1.59775316       26 
Fe      2.88086610       8.52368625       8.59797271      -0.35213006       0.17118096      -0.87884881       26 
Fe      4.41072988       9.83143011       9.79902214      -0.21924439       1.08663817       0.71246939       26 
Fe      5.73798624       0.09130639      -0.01108614       0.19508296      -1.18863331      -0.36727051       26 
Fe      7.10751545       1.35676454       1.56200209      -0.00561092       0.99256330      -1.42411474       26 
Fe      5.67897182      -0.04159531       2.84168058      -0.33317820       0.06115369      -0.08998964       26 
Fe      7.20490000       1.39418389       4.17413352      -0.88352179       0.30038892       1.65172087       26 
Fe      5.78860304      -0.04794640       5.78153972      -0.81166872       0.36597519      -1.67474458       26 
Fe      7.06533416       1.34645175       7.10534431       1.06513192       0.58404819      -1.00481050       26 
Fe      5.85950283      -0.04859249       8.42911857      -1.48216844      -0.16021032       0.81796123       26 
Fe      7.03205850       1.57365851       9.85070809       1.06931202      -1.39521297       0.52518664       26 
Fe      5.58081569       2.60885174       0.08297170       0.72033053       2.35243646      -0.39598408       26 
Fe      6.97614076       4.25399764       1.35280843       0.40242238      -0.19602064       0.90154677       26 
Fe      5.72536837       2.72571686       2.89300944      -0.69319743       0.94881958      -0.36791432       26 
Fe      7.12096435       4.27293825       4.26042119      -0.37539494      -0.00761561      -0.46172667       26 
Fe      5.82901324       2.84239266       5.68208244      -0.78105870      -0.16143237      -0.98361612       26 
Fe      7.12671676       4.26098424       7.07097412      -0.12234903       1.07478487      -0.68269164       26 
Fe      5.80827881       2.91823056       8.38999854      -1.51580053      -0.89317500       0.77706784       26 
Fe      7.05971306       4.15762934      10.00944909       0.43537466       1.25570620      -0.86252102       26 
Fe      5.59198590       5.69997783      -0.14874277       0.10601609      -0.30705553       1.37131739       26 
Fe      7.01968190       7.04521766       1.25211152      -0.48255158       0.57081729       1.78006262       26 
Fe      5.54088675       5.52568611       2.63482008       0.47968094       1.43928219       1.25460705       26 
Fe      7.05208077       7.07307840       4.23140474      -0.66240332       0.09003206      -0.49052277       26 
Fe      5.49456516       5.76278237       5.58173470       1.21219310      -1.02044795       0.25849614       26 
Fe      7.09545159       7.12622838       6.89526329       0.25470299      -0.49334198       1.48184937       26 
Fe      5.65755131       5.62504283       8.53805708       0.48348977       0.51496727      -0.97128460       26 
Fe      7.16095568       7.04457574      10.00956297      -0.17648206       0.34441289      -1.30291062       26 
Fe      5.69447134       8.59197185      -0.03433841       0.33623087      -0.86931233      -0.07456019       26 
Fe      7.20550971      10.02060894       1.46007384      -1.27560422      -1.40855982      -0.19972509       26 
Fe      5.55784551       8.34345694       2.84387386       1.01439094       1.56671686      -0.98883443       26 
Fe      7.08406914      10.04371226       4.21689786      -0.31475599      -1.50833328       0.00118759       26 
Fe      5.58067118       8.36955941       5.56770744       0.74720036       1.88198192       0.15834987       26 
Fe      7.11196708       9.83132817       6.97970076       0.42996789       0.39579381       1.00319559       26 
Fe      5.76618305       8.48808993       8.37876593       0.23189036      -0.08236092       1.16131329       26 
Fe      7.30664466       9.98065898      10.07678493      -1.33983115      -0.26757342      -1.30078895       26 
Fe      8.57989177       0.07560489       0.11303932      -0.30701388       0.56346753      -0.94173311       26 
Fe      9.98573375       1.44836012       1.38212904      -0.32394382       0.19043672       0.47585797       26 
Fe      8.48309546       0.03464863       2.84430391       1.29437610      -0.32743178       0.08004410       26 
Fe      9.88809973       1.48987051       4.23013255       1.11555665      -0.87998190       0.83464949       26 
Fe      8.56878172      -0.00070093       5.65075187      -0.20136700       0.38693739       0.23182737       26 
Fe      9.97554922       1.32371369       7.10997807      -0.61727687       0.91256009      -0.54848494       26 
Fe      8.52583761       0.11841255       8.52463070      -0.36103944      -1.53281146      -0.00594259       26 
Fe      9.82142026       1.51979688       9.77062040      -0.09261885      -0.39132987       2.13332139       26 
Fe      8.36464211       2.94275978       0.08516970       1.46537528      -1.23620284      -0.44508058       26 
Fe      9.87324313       4.28782889       1.42866291      -0.05412583      -0.55010757       0.24005413       26 
Fe      8.59895744       2.79105030       2.87441407      -0.93809448       1.01139998      -0.83374035       26 
Fe      9.95995779       4.11690781       4.29505130      -0.34979112       1.51752034      -0.19600522       26 
Fe      8.55569103       2.84816409       5.69905148      -0.36191876      -0.39429615      -0.52469324       26 
Fe      9.90175351       4.13688185       7.15812513       0.81754163       1.68298651      -0.65419405       26 
Fe      8.50311510       2.82316674       8.24976675      -0.23216958       0.07237604       2.70039464       26 
Fe     10.01671568       4.32876881       9.94587766      -2.22485781      -1.08613989      -0.66541949       26 
Fe      8.54396439       5.73528172       0.16843492      -0.57544142      -0.84983777      -1.94163614       26 
Fe      9.85327210       7.17537436       1.41569784       0.70483141      -0.99910548       0.51077817       26 
Fe      8.42614234       5.79224187       2.87060626       0.27997642      -1.53573969      -0.53153186       26 
Fe      9.86762731       7.09872191       4.29363663       0.25035860      -0.23070046      -0.28960031       26 
Fe      8.48012234       5.75608076       5.57950947       0.43206488      -0.93737972       1.02354124       26 
Fe      9.91531228       7.19975958       7.15775872      -0.04968811      -1.11559753      -0.55836775       26 
Fe      8.53457901       5.60435371       8.48150527      -0.41032929       0.71060251       0.26199721       26 
Fe     10.06662439       7.07344146       9.89179503      -1.72572287       1.01672576       0.64802314       26 
Fe      8.57377543       8.49070554       0.08275930      -0.46881726       0.40462298      -0.54098092       26 
Fe      9.93040779       9.97114873       1.45085787      -0.00696280      -0.35202798       0.61750698       26 
Fe      8.41900720       8.41630215       2.83514975       0.01360859       1.20893423      -0.05998795       26 
Fe      9.93444239       9.93832325       4.21939537      -0.44654970       0.19158086       0.35942633       26 
Fe      8.51696421       8.68457104       5.54352229      -0.18708709      -1.88851098       0.58583330       26 
Fe      9.82217811       9.85077221       7.14972167       0.99782507       0.83614408       0.12766273       26 
Fe      8.59939543       8.45408016       8.61679438      -0.82271469       0.58024424      -0.30492460       26 
Fe      9.95275891       9.96390066      10.12574457       0.01109920      -0.20115771      -1.68225015       26 
128
Lattice="11.3344 0.0 0.0 0.0 11.3344 0.0 0.0 0.0 11.3344" Properties=species:S:1:pos:R:3:force:R:3:Z:I:1 config_type=phonons_128_high config_name=bcc_bulk_128_0002 ecutwfc=1224.51225528 pbc="T T T" kpoints="3 3 3" degauss=0.136056917253 energy=-442985.481344