54
Lattice="8.601075 0.0 0.0 0.0 8.601075 0.0 0.0 0.0 8.601075" Properties=species:S:1:pos:R:3:force:R:3:Z:I:1 config_type=phonons_54_high config_name=bcc_bulk_54_expanded_0000 ecutwfc=1224.51225528 pbc="T T T" kpoints="4 4 4" degauss=0.136056917253 energy=-186886.002648
Fe      0.05717711      -0.12617115       0.04933253       0.17560326       1.81569734      -0.95606675       26
Fe      1.27778601       1.49713777       1.55398792       0.96515843      -0.69104438      -0.87992430       26
Fe     -0.08396834      -0.18072605       2.90406456       1.12895827       1.79888798      -0.03734193       26
Fe      1.28576903       1.46718974       4.32628189       0.87523153      -0.39809855       0.09084273       26
Fe     -0.05163557      -0.00784859       5.70835310       0.27783803       0.09795003       0.60975665       26
Fe      1.41900023       1.41779677       7.14723667       0.00791925      -0.02453115       0.59617839       26
Fe     -0.11396768       2.88148905      -0.03606851       0.74572249      -0.08328549       0.30026936       26
Fe      1.56213662       4.29566754       1.42047220      -1.33987846       0.38267733       0.55661554       26
Fe     -0.01894019       2.94914860       2.84580991       0.14064963       0.25525886       0.51158113       26
Fe      1.45972842       4.46112291       4.37442539      -0.31555946      -1.10608676      -0.15956369       26
Fe      0.02365513       2.94354953       5.72315202      -0.19641685      -0.05727184       0.14482381       26
Fe      1.53299865       4.26199843       7.24903142      -0.79185348       0.20019380      -0.45567249       26
Fe      0.06855313       5.72720757       0.10277853      -0.44955507      -0.65613395      -0.78551083       26
Fe      1.48361861       7.17446562       1.34077200       0.14679585      -0.27992294       0.90626397       26
Fe      0.11780154       5.74142782       2.91211720      -0.65791135       0.19680740      -0.66153095       26
Fe      1.29469774       7.27144905       4.39461722       1.08279925      -1.12266318      -0.28695439       26
Fe     -0.05607006       5.71628904       5.88800685       0.32922667       0.33138357      -0.82618979       26
Fe      1.48417228       7.09347703       7.12735374      -0.18315664       0.78486908       0.51424505       26
Fe      2.87822328       0.03719396       0.06996136      -0.28423494      -0.03158729      -0.96025585       26
Fe      4.24888342       1.38056649       1.46110199       0.00482982       0.34610185       0.26395047       26
Fe      2.72805560      -0.07760981       2.89716925       0.54080969       0.56560695      -0.27215666       26
Fe      4.33762509       1.23385208       4.18994404      -0.20150558       1.29911182       1.03244343       26
Fe      2.91129751      -0.00867428       5.74329779      -0.43456348      -0.09868639      -0.21334757       26
Fe      4.35621051       1.36276709       7.08768236      -0.25767210       0.35600317       0.49736267       26
Fe      2.89325391       2.93145477       0.14555694      -0.15492722      -1.52128058      -1.05154544       26
Fe      4.19420202       4.28003212       1.58713322       1.13087580       0.18037908      -0.83986780       26
Fe      2.75694721       2.79029303       2.97251200       0.49008285       0.17580740      -0.33578067       26
Fe      4.19262349       4.22220379       4.24739524       0.85860729       0.72708457       0.40725734       26
Fe      2.86247267       2.76405413       5.75808113      -0.17375695       0.12263699      -0.66319754       26
Fe      4.23216024       4.11050493       7.06241318       0.91082896       1.26342439       0.76518009       26
Fe      2.94211835       5.73792176      -0.08344974      -0.09602864      -0.16109375       0.52741964       26
Fe      4.35438838       7.19157949       1.27733982      -0.46972871       0.05270067       1.28781285       26
Fe      2.83806022       5.82201825       2.86545275       0.13473712      -0.28288356      -0.13099333       26
Fe      4.26166708       7.10800205       4.23364040       0.46789629       0.76703282      -0.03782864       26
Fe      2.87505974       5.79394728       5.68658093       0.06788612      -0.52781302       0.32205818       26
Fe      4.34047438       7.11649958       7.10488233      -0.23227268       0.64821649       0.42661414       26
Fe      5.72570552       0.02007961      -0.02968408       0.51784537      -0.02179524       0.01958743       26
Fe      7.24835621       1.42983010       1.48940671      -0.57215581       0.03464767      -0.68483389       26
Fe      5.77154606       0.09106683       2.77804135      -0.26384223      -1.20635233       0.20513803       26
Fe      7.25994412       1.43335383       4.20504195      -0.83074373       0.32572714       0.76000857       26
Fe      5.87976904      -0.05375692       5.77656488      -1.28166277       0.37936061      -0.90178537       26
Fe      7.15393111       1.44289785       7.05256663       0.45032383       0.10828895       1.01265596       26
Fe      5.69856516       2.71047064       0.09392147       0.05533888       1.10103429      -0.61469085       26
Fe      7.07348109       4.28542798       1.49885839       0.82508319       0.33903311      -0.87522587       26
Fe      5.76904902       2.88472250       2.91517291      -0.50044105      -0.21764876      -0.20726099       26
Fe      7.22106813       4.48350914       4.24727705      -0.51330917      -0.70081046       0.43589017       26
Fe      5.85522154       2.98431940       5.66489690      -0.88932657      -1.10687609      -0.40564294       26
Fe      7.07531801       4.29164432       7.17771562       0.41083194       0.42021261       0.46578078       26
Fe      5.72040485       5.77435812       0.00846489       0.20451968      -0.72458417      -0.38027284       26
Fe      7.35128860       7.28058651       1.41628514      -1.91305010      -1.53165344      -0.19525831       26
Fe      5.80062728       5.83755498       2.69301497      -0.78538870      -0.30815057       1.12117682       26
Fe      7.05472183       7.18829223       4.23476564       0.84201313      -0.31585488       0.49315043       26
Fe      5.67506664       5.84592465       5.70961631       0.50417481      -1.22373144      -0.11678850       26
Fe      7.24388748       7.21262841       7.25384114      -0.50364645      -0.67629474      -0.33857571       26
54
Lattice="8.601075 0.0 0.0 0.0 8.601075 0.0 0.0 0.0 8.601075" Properties=species:S:1:pos:R:3:force:R:3:Z:I:1 config_type=phonons_54_high config_name=bcc_bulk_54_expanded_0001 ecutwfc=1224.51225528 pbc="T T T" kpoints="4 4 4" degauss=0.136056917253 energy=-186885.883227
Fe     -0.01563725       0.03525157       0.11817372      -0.10792642      -0.16600173      -1.49575621       26
Fe      1.37986019       1.34953033       1.38086316       0.65599408       0.85479511      -0.02240125       26
Fe      0.09226970      -0.18577094       2.84033562      -0.62700669       1.88864288       0.69708776       26
Fe      1.50109166       1.39482319       4.23350438      -0.40915867       0.30521437      -0.08116458       26
Fe      0.01369979       0.07467993       5.67531163      -0.01626300      -1.05727540       1.10683161       26
Fe      1.49811614       1.55791806       7.05414931      -0.57334777      -1.04646237       1.06793802       26
Fe      0.02463412       3.01764005      -0.10024194       0.15127471      -1.25281653       0.31229261       26
Fe      1.46605020       4.17549743       1.44771988       0.04523419       1.41198196      -0.43644630       26
Fe      0.05550771       2.84501653       2.77153133      -0.16049391      -0.84777112       0.84777626       26
Fe      1.30534836       4.28527588       4.26222785       0.99554373      -0.39188342       0.20888233       26
Fe     -0.04401922       2.81294129       5.77855367       0.10092017       0.28064413      -0.61227401       26
Fe      1.60885551       4.32650013       7.12823879      -1.55801804       0.06908785       0.20438547       26
Fe     -0.00830531       5.73686783       0.00527565      -0.42667482      -0.52951972       0.26403944       26
Fe      1.29260147       7.15573191       1.38534002       1.32506916      -0.56344054       0.58341287       26
Fe     -0.04772972       5.64253447       2.85206085       0.37562531       0.47139530      -0.10975088       26
Fe      1.37743762       7.21282347       4.36314114       0.22820469      -0.57668892      -0.50440081       26
Fe     -0.11080610       5.73266521       5.65482631       0.38483603      -0.11151311       0.84521081       26
Fe      1.31046218       7.07296676       7.20977060       0.44153322       0.88168551      -0.68283794       26
Fe      2.80580236      -0.05382721      -0.01615861      -0.12757917       0.76512738       0.16071554       26
Fe      4.32078768       1.43886532       1.43863633       0.19711362       0.27750533      -0.60361557       26
Fe      2.91540466       0.01582610       2.74360549      -0.46209151      -0.05033114       1.49392096       26
Fe      4.42116395       1.53818647       4.37838653      -0.47249625      -0.86639773      -0.85139869       26
Fe      2.80248560      -0.01973159       5.72502922       0.47317425       0.14283738       0.01363919       26
Fe      4.29778874       1.32790892       7.19784413      -0.15151973       1.25961453      -0.53041343       26
Fe      2.92540701       2.88740427      -0.01309490       0.18223927      -0.08166903       0.04218409       26
Fe      4.31653277       4.40747640       1.59417809      -0.22410146      -0.49236419      -1.39643758       26
Fe      2.89564366       2.77279199       2.73293446       0.07522071       0.61287951       1.32154675       26
Fe      4.30524341       4.35910324       4.24335974      -0.11539265      -0.77957415       0.19699175       26
Fe      2.86133150       2.88213403       5.67288656       0.58792387       0.08912626      -0.14390284       26
Fe      4.33119013       4.38308195       7.14086587      -0.24369507      -0.14417949       0.47736900       26
Fe      2.83246542       5.86254169       0.04998958       0.23034230      -1.32464827       0.27626503       26
Fe      4.23563963       7.23089608       1.52889039       0.62936388      -0.47573815      -0.50914347       26
Fe      2.76867942       5.80290653       3.00692371       0.37812854      -0.11562354      -1.02782573       26
Fe      4.41040709       7.21681587       4.41906000      -1.30527681      -0.23941032      -1.30566196       26
Fe      2.76442457       5.71257604       5.66862399       0.76422415       0.42901427       0.37069831       26
Fe      4.14842924       7.18454972       7.20843617       0.91131233      -0.61071850      -0.21307914       26
Fe      5.66017273       0.04948775      -0.03981881       0.42235202      -0.61465588       1.01502138       26
Fe      7.19465693       1.44348666       1.40642340       0.32195508      -0.22209574      -0.22650416       26
Fe      5.80111422       0.09037856       2.80838863      -0.83972794      -0.68845323       0.75342835       26
Fe      7.20140904       1.20581042       4.33894016      -0.16418345       1.78057967      -0.49136455       26
Fe      5.70984657      -0.19193676       5.85526747       0.49598970       1.58413582      -0.51307828       26
Fe      7.13520653       1.37044110       7.26384862       0.33587143       0.65282442      -0.85978871       26
Fe      5.79255347       2.95153063      -0.01943588      -0.86753699      -0.46127081       0.08984540       26
Fe      7.18988747       4.18772955       1.45915281       0.36595333       1.67511508      -0.81615760       26
Fe      5.95747314       2.84926149       2.72867450      -1.96381088      -0.26879006       1.66391972       26
Fe      7.19926793       4.23572175       4.26579144      -0.26551731      -0.02945276       0.09530616       26
Fe      5.76576647       2.92513019       5.70266034      -0.03576456      -0.67766025       0.40319551       26
Fe      7.09446495       4.31801831       7.15626824       0.59574979       0.49516258       0.05856947       26
Fe      5.80066151       5.88743862       0.17795068      -0.61435558      -0.80315039      -0.90724330       26
Fe      7.15547255       7.26516172       1.57899128      -0.07607688      -0.86705285      -1.36793356       26
Fe      5.77099766       5.71875119       2.88431910      -0.24912472       0.27572356       0.08721156       26
Fe      7.11900132       7.10842422       4.22496847       0.43557315       0.34917637       0.81698010       26
Fe      5.70379441       5.68389854       5.68083706       0.32214431       0.51763582       0.73659713       26
Fe      7.21417669       7.23305463       7.26978129      -0.37172700      -0.71329600      -0.50268100       26
54
Lattice="8.601075 0.0 0.0 0.0 8.601075 0.0 0.0 0.0 8.601075" Properties=species:S:1:pos:R:3:force:R:3:Z:I:1 config_type=phonons_54_high config_name=bcc_bulk_54_expanded_0002 ecutwfc=1224.51225528 pbc="T T T" kpoints="4 4 4" degauss=0.136056917253 energy=-186886.027877
Fe     -0.00269393      -0.06801800       0.02711515       0.44713309       0.91056491      -0.04524962       26
Fe      1.44297618       1.52914726       1.50858689      -0.75862917      -0.91188800      -0.85945652       26
Fe      0.08444343       0.10155934       2.78472698      -0.79596159      -0.29519786       0.73117288       26
Fe      1.40579441       1.36954820       4.27845817       0.14083320       0.75161880       0.13247660       26
Fe      0.01980950       0.06161814       5.68392968       0.06278737      -0.42098086       0.00443104       26
Fe      1.42780437       1.43273848       7.13220477      -0.37536383      -0.81693331       0.84092736       26
Fe     -0.06921894       2.90823736       0.01073804       1.05949503      -0.43356589      -0.03313509       26
Fe      1.38305288       4.31532021       1.51632498      -0.02090898       0.11451076      -0.68616237       26
Fe     -0.17494865       3.03682178       3.00473315       1.26364602      -1.96134802      -1.12239527       26
Fe      1.35260911       4.17382183       4.25611814       0.69018666       1.21321049       0.49182400       26
Fe     -0.11516089       2.75534939       5.82466443       0.37500979       0.72357475      -0.64251301       26
Fe      1.44394704       4.36694202       7.18639412      -0.56731879      -0.35698224       0.08760648       26
Fe     -0.19234214       5.63070278      -0.09165072       1.93941908       1.41381824       0.60820936       26
Fe      1.41683827       7.27819747       1.39644829      -0.01985689      -1.30957183       0.39217704       26
Fe     -0.06116462       5.83139213       2.83251155       0.83442169      -0.15771764       0.20972411       26
Fe      1.51684207       7.19537877       4.24781639      -0.36785107      -0.17309900      -0.06972806       26
Fe      0.09821823       5.82841144       5.60847647      -0.62550285      -0.46673132       0.72853081       26
Fe      1.41987414       7.12366552       7.22450022       0.29369428       0.15783745      -0.38900045       26
Fe      3.00955454      -0.11292357       0.11449555      -1.29490909       0.89395970      -1.00277984       26
Fe      4.33400575       1.39194991       1.36911585      -0.03065938       0.26911942       0.42555433       26
Fe      2.87045935      -0.01133741       2.81094671       0.70102052       0.15936726       0.55442419       26
Fe      4.22608285       1.56050161       4.39720404       0.16683143      -0.85628147      -0.66378015       26
Fe      2.85495461      -0.09245457       5.75899777       0.11600432       0.60715417      -0.30249825       26
Fe      4.26420014       1.35394252       7.16235441       0.12649390       0.60015769       0.32736236       26
Fe      2.71838918       2.71809833       0.01566750       1.23820470       1.32328378      -0.20706688       26
Fe      4.35237207       4.25452319       1.40764068      -0.67458007       0.00892533       0.10047974       26
Fe      2.82017596       2.80175912       2.77512466       0.71086065       0.86600821       1.17082303       26
Fe      4.39783094       4.33881168       4.31235456      -0.98870331      -0.65362326      -0.10462693       26
Fe      2.67204620       2.90069556       5.80855800       1.50367701      -0.08408150      -0.45581802       26
Fe      4.30516818       4.37377973       7.21164327      -0.44544824      -0.50036701       0.14655159       26
Fe      2.81844696       5.75603363       0.11269885       0.36206891      -0.51068099      -0.86543202       26
Fe      4.37205991       7.05597449       1.39731790      -0.06878395       0.21035300       0.54722870       26
Fe      2.87001863       5.72874851       2.84471365       0.23601595      -0.12520501       0.25981794       26
Fe      4.49435623       7.16124072       4.26614457      -1.70739425      -0.13612603      -0.27298147       26
Fe      2.92339682       5.68834811       5.69340844      -0.18090230       0.49730199       0.10020360       26
Fe      4.35287922       7.26755703       7.18025224      -0.17599509      -1.93131265      -0.28121955       26
Fe      5.74808950      -0.11808338      -0.02691040       0.33814943       0.95251015       0.46060567       26
Fe      7.26775934       1.50532240       1.43716876      -0.75840652      -0.77582677       0.12636740       26
Fe      5.71327374      -0.01389652       2.75037985       0.01182090       0.69906597       0.65946327       26
Fe      6.98207386       1.43325368       4.30185626       0.84622023       0.14441552       0.09633383       26
Fe      5.68471429      -0.06049648       5.68519981       0.60446480       1.02305093       0.38677464       26
Fe      7.18434839       1.30057763       7.26755972      -0.64121435       0.96215230      -0.65689448       26
Fe      5.84579568       2.86429576       0.09651970      -1.09378892      -0.39913573      -0.90379006       26
Fe      7.24588634       4.33532681       1.43367632      -1.02766966      -0.14550747       0.37650874       26
Fe      5.73782981       2.85185700       2.80632073      -0.34238609       0.16421893       0.59833375       26
Fe      7.20349860       4.32805983       4.33406288      -0.72265687       0.13499680       0.45112961       26
Fe      5.62847465       2.93433935       5.88103850       0.55490859      -0.70281952      -0.71126457       26
Fe      7.13839824       4.23906716       7.18028534       0.14355729       0.46056736      -0.66007056       26
Fe      5.80927156       5.64208241      -0.01667341      -0.46189688       0.93490015      -0.06146890       26
Fe      7.14328013       7.22975634       1.48865651       0.35681692      -0.65932443      -0.88600342       26
Fe      5.77172412       5.64490872       2.88643960       0.19569669       0.73187170      -0.53216898       26
Fe      7.21908480       7.33465245       4.17505905      -0.00325142      -0.85034891       0.66958107       26
Fe      5.86252097       5.77232901       5.66046019      -0.30479836       0.15206275       0.89991437       26
Fe      7.28508548       7.29475267       7.11235280      -0.86460130      -1.44592180      -0.16903358       26
54
Lattice="8.601075 0.0 0.0 0.0 8.601075 0.0 0.0 0.0 8.601075" Properties=species:S:1:pos:R:3:force:R:3:Z:I:1 config_type=phonons_54_high config_name=bcc_bulk_54_expanded_0003 ecutwfc=1224.51225528 pbc="T T T" kpoints="4 4 4" degauss=0.136056917253 energy=-186886.216911
Fe     -0.15260988      -0.08302579      -0.07723878       1.23663889       0.69088703       1.36829789       26
Fe      1.45061346       1.51214990       1.51525149      -0.32781128      -0.74006658      -0.90176583       26
Fe     -0.03614869      -0.08475093       2.84777628       0.22121386       0.79530082       0.06811135       26
Fe      1.58733125       1.54995826       4.23176034      -0.81312833      -1.34655227       0.24115405       26
Fe     -0.04381668      -0.08386968       5.73878815       0.23577118       1.32899112      -0.08116818       26
Fe      1.42856760       1.30701396       7.24653772      -0.00372244       0.39217473      -0.55311344       26
Fe      0.00620189       2.81842380      -0.06223928       0.37220086       0.09898670       0.50140393       26
Fe      1.35436188       4.37862331       1.42561971       0.59708291      -0.58847845      -0.33052816       26
Fe      0.02201856       2.84499487       2.87002171       0.18442883       0.57405971      -0.35004155       26
Fe      1.56642814       4.30741437       4.27164715      -0.97989008       0.24470705       0.00274208       26
Fe      0.15470512       2.78450810       5.59801879      -0.82060304       0.60505744       1.12433028       26
Fe      1.43294281       4.48762560       7.26032759      -0.26055765      -1.29064543      -1.03165693       26
Fe     -0.14195425       5.65646666      -0.00904819       0.79153158       1.23732358       0.09438802       26
Fe      1.43472776       7.15877566       1.45019794      -0.56103501       0.16766806      -0.54650828       26
Fe      0.01891310       5.69903716       2.87037330      -0.41926079       0.39775788       0.24088871       26
Fe      1.27955912       7.24276203       4.32868091       1.15746203      -0.91895339      -0.43705899       26
Fe     -0.02088343       5.75747507       5.73254955      -0.12461057      -0.30417435       0.24676831       26
Fe      1.35142325       7.23266122       7.23329234       0.39628181      -0.73153026      -0.28145737       26
Fe      2.98248402       0.04210139       0.12870775      -1.00967657      -0.04854320      -0.52317655       26
Fe      4.30175792       1.63487070       1.38967503       0.10986067      -1.48215919       0.46296928       26
Fe      2.75595064      -0.01217565       2.85471885       1.18497643       0.22563744      -0.11284443       26
Fe      4.41535888       1.38249654       4.32952034      -1.24610364       0.50134043      -0.20959633       26
Fe      2.82170508      -0.13505924       5.71264642       0.33839239       1.24724804       0.21571067       26
Fe      4.26008181       1.46213049       7.11190790       0.52865120      -0.01460644       0.54291388       26
Fe      2.78680463       2.84928535      -0.05883770       0.37596495       0.61085219       0.48538005       26
Fe      4.33212227       4.28953543       1.34811218      -0.54750021       0.64996947       0.37800667       26
Fe      2.92544672       2.97313251       2.78168129      -0.16877672      -0.30298265       0.58638352       26
Fe      4.34122789       4.20336992       4.38622965      -0.52757159       0.62248901      -0.44513868       26
Fe      2.76374861       2.83990278       5.85837340       0.94652333       0.27801492      -0.80699214       26
Fe      4.22488344       4.27338068       7.12915038       0.49426295       0.02909563       0.31033215       26
Fe      2.84966079       5.81853721      -0.05416911       0.31822672      -0.24630191       0.54983889       26
Fe      4.42621713       7.08950890       1.36757950      -0.86753107       0.01315094       0.64597320       26
Fe      2.83403317       5.79678140       2.79803817       0.60315945      -0.39760439       0.30830457       26
Fe      4.28612491       7.18664150       4.19810075      -0.19152173      -0.57761837       0.81597660       26
Fe      2.85391901       5.77756215       5.61278320       0.17118327       0.17281798       0.98512073       26
Fe      4.34509986       7.27010217       7.27785028      -0.59941850      -1.01226721      -0.86608740       26
Fe      5.69431586       0.07358475       0.09475717       0.43459639       0.20767391      -0.42789764       26
Fe      7.25886059       1.39185523       1.45982152      -0.73401369       0.21019925      -0.03173615       26
Fe      5.61241916      -0.06169798       2.85962009       1.09779187       0.74372140      -0.21551552       26
Fe      7.21999359       1.43914721       4.15482881      -0.39351299      -0.54071893       1.02678134       26
Fe      5.66476411      -0.00441907       5.77819303       0.43000311       0.35546272      -0.35460089       26
Fe      7.22396483       1.39610857       7.11846887      -0.49600050       0.41555968       0.10779967       26
Fe      5.89179641       2.94044010       0.13358601      -1.04807419      -1.25448801      -1.56792116       26
Fe      7.17304450       4.29465968       1.41019325       0.43481288      -0.08194620       0.99116694       26
Fe      5.67194114       2.91429152       2.88787528       1.03522819      -0.43856540      -0.19074988       26
Fe      7.23835310       4.27412111       4.27797371      -0.03357424       0.07681582       0.37819076       26
Fe      5.90587637       2.86255615       5.69922367      -0.91644091      -0.38615064       0.41897745       26
Fe      7.21877881       4.19648937       7.18306949       0.01794450       0.53718315      -0.84253507       26
Fe      5.78236015       5.58496336      -0.05977926      -0.42524683       1.24528217       0.24236504       26
Fe      7.15948447       7.16906003       1.50219825      -0.38041553      -0.61206241      -0.30897435       26
Fe      5.77369342       5.62369447       2.96596384      -0.28390609       0.80693506      -0.58642234       26
Fe      7.11952369       7.22623840       4.43197070      -0.23386831      -0.87227373      -1.09409488       26
Fe      5.67231888       5.68306091       5.78151339       0.45084010       0.37012238      -0.07453602       26
Fe      7.04369062       7.29168589       7.20032470       0.24874189      -1.66379631      -0.16815683       26
54
Lattice="8.601075 0.0 0.0 0.0 8.601075 0.0 0.0 0.0 8.601075" Properties=species:S:1:pos:R:3:force:R:3:Z:I:1 config_type=phonons_54_high config_name=bcc_bulk_54_expanded_0004 ecutwfc=1224.51225528 pbc="T T T" kpoints="4 4 4" degauss=0.136056917253 energy=-186886.332559
Fe     -0.08775088       0.14090497      -0.06887707       0.74625188      -1.31260394       0.69216847       26
Fe      1.41114395       1.27839104       1.40679008       0.27879037       0.89199178       0.24678990       26
Fe      0.06042082      -0.03292290       2.98324991      -0.18304917       0.02625533      -0.69351007       26
Fe      1.42766835       1.55961125       4.21145126       0.58073352      -1.11024115       1.03931187       26
Fe      0.08070056      -0.04473885       5.80512990      -0.39861072       0.76115271      -0.72644333       26
Fe      1.45394957       1.36832213       7.26730855      -0.24406094       0.68387049      -1.17468225       26
Fe     -0.07985445       2.93796322       0.01905046       0.51015314      -0.67424043       0.23425732       26
Fe      1.45304673       4.19992520       1.43473693       0.03368274       0.35779162       0.05666120       26
Fe     -0.00549669       2.76368845       2.87446258      -0.19530511       1.07025844      -0.48510597       26
Fe      1.43413538       4.29757620       4.24159955      -0.25113173      -0.09854061       0.21001105       26
Fe      0.00132096       3.01695409       5.71775896       0.14626106      -0.83643075       0.53812211       26
Fe      1.48194757       4.36077020       7.31465350      -0.79954494      -0.53357872      -1.03223568       26
Fe      0.10119628       5.77448627       0.03849416      -0.86960261      -0.09516501      -0.06961236       26
Fe      1.46803590       7.05727302       1.48750130       0.22318409       1.07282852      -0.94647448       26
Fe      0.05937523       5.73349424       2.79191583      -0.85125136      -0.60116196       0.56262473       26
Fe      1.39766566       7.04201843       4.31805114       0.50078378       0.97774835      -0.19824259       26
Fe     -0.01857023       5.71242218       5.68291977      -0.05130919      -0.25749186       0.47528692       26
Fe      1.45086744       7.10024987       7.09840912       0.37059083       0.47000048       0.62499069       26
Fe      2.97623948      -0.00411165      -0.09805401      -0.88429647      -0.51995881       0.78128933       26
Fe      4.18722706       1.54249542       1.47027648       0.97739045      -1.32076282      -0.27372684       26
Fe      2.90274108      -0.10506841       2.83265132      -0.31830154       1.05693138       0.51619060       26
Fe      4.37258433       1.46604508       4.48283454      -0.98479214      -0.10829075      -1.65328204       26
Fe      2.86211905      -0.03314480       5.62177317      -0.16520340       0.26703451       1.01369906       26
Fe      4.29807725       1.51235384       7.15335502       0.12161138      -0.59979696      -0.44135402       26
Fe      2.88233383       2.75611247      -0.02305318      -0.72703674       0.91997978       0.70410070       26
Fe      4.26046233       4.34400111       1.44372978       0.22681398       0.11496276      -0.00802364       26
Fe      2.95685790       2.92800583       2.87768503      -1.01253795      -0.58177842       0.22410686       26
Fe      4.22780757       4.22082410       4.44183876       0.36503082       0.44251384      -1.46237121       26
Fe      2.75766271       2.94460523       5.86067664       0.12929049      -1.08004200      -0.93408536       26
Fe      4.17620686       4.23689532       7.16157287       1.11974035       0.56443530      -0.03961221       26
Fe      2.93920276       5.68919868      -0.01545870      -0.42757265       0.60938178       0.52039616       26
Fe      4.32871012       7.20347316       1.44482875       0.21413072      -0.42095000      -0.39860969       26
Fe      2.86427519       5.76557075       2.92373363       0.56440033      -0.63883865      -0.40439261       26
Fe      4.32214207       7.23434805       4.29279639       0.00845456      -0.85109247       0.16611152       26
Fe      2.83511662       5.68492853       5.68774595       0.20290940       0.45381384       0.53952362       26
Fe      4.37426068       7.11398374       7.22630560      -0.61864881       0.28324275      -1.17839801       26
Fe      5.67125134       0.06722841      -0.06536579       0.61809679      -0.10799533       0.57839921       26