54
Lattice="8.6368128 0.0 0.0 0.0 8.6368128 0.0 0.0 0.0 8.6368128" Properties=species:S:1:pos:R:3:force:R:3:Z:I:1 config_type=bcc_bulk_54_high config_name=bcc_bulk_54_expanded_2_0000 ecutwfc=1224.51225528 pbc="T T T" kpoints="4 4 4" degauss=0.136056917253 energy=-186886.614812
Fe      0.06017635       0.05781819       0.08460648      -1.01179464      -0.56666367      -0.27488898       26 
Fe      1.40918009       1.44551149       1.41805636       0.25698973       0.18938103       0.44977438       26 
Fe     -0.00360893      -0.03751375       3.01276241       0.16793854       0.23100770      -0.97807385       26 
Fe      1.44248584       1.40631291       4.45291620      -0.16417753      -0.26428369      -0.89765026       26 
Fe     -0.08084600      -0.02919137       5.83695942       0.30806983       0.34938180      -0.44796535       26 
Fe      1.31644895       1.39765164       7.26587423       0.80919917       0.76835874      -0.31990668       26 
Fe     -0.03131407       2.98052992       0.05049020       0.01097655      -0.64570915      -0.02244933       26 
Fe      1.34941525       4.27114514       1.58856784       0.59622673      -0.13648752      -1.34275732       26 
Fe     -0.01589813       2.82405412       2.98128968      -0.08574732       0.02632887      -0.34496748       26 
Fe      1.40023491       4.20467382       4.46953326       0.31780172       0.90461178      -1.18097785       26 
Fe      0.01940004       2.87493497       5.75744705      -0.83808603       0.15308348       0.73894558       26 
Fe      1.50073891       4.40203947       7.15493939      -0.71026441      -0.27338539       0.31166089       26 
Fe      0.10475866       5.83139308       0.03300916      -0.64538622      -0.70973142       0.00995557       26 
Fe      1.48844376       7.26258859       1.43594933      -0.16794548      -0.59264801       0.05016248       26 
Fe      0.09426233       5.62925619       2.96720381      -0.86256165       0.93474177      -0.37871038       26 
Fe      1.44184446       7.23096805       4.27368775       0.42988818      -0.36668970       0.26987327       26 
Fe     -0.02219264       5.89687076       5.65443058      -0.00439736      -1.02139720       0.90809537       26 
Fe      1.42451716       7.22089912       7.20300528       0.18743856      -0.11382068      -0.20113174       26 
Fe      2.96476052      -0.00633504      -0.15212004      -0.50936124       0.43168693       1.71843148       26 
Fe      4.42134998       1.57215715       1.41457687      -1.16759346      -1.17380988       0.05721553       26 
Fe      2.81744738       0.00992893       2.77439871       0.91776683       0.15283948       0.63856097       26 
Fe      4.39240236       1.35412613       4.24455033      -0.96675894       0.42665477       0.02726861       26 
Fe      2.83221184       0.00128477       5.80607628       0.55570666      -0.37242274      -0.60172246       26 
Fe      4.34080521       1.40394830       7.11764766      -0.41065942       0.86277273       0.44976075       26 
Fe      2.83447602       2.94300605       0.00207626       0.20721497      -0.45247430      -0.22616297       26 
Fe      4.35450137       4.30751651       1.32088261      -0.40568948       0.06241430       0.65532405       26 
Fe      2.83207182       2.85066487       2.94267069       0.13711102      -0.49412771      -0.59368339       26 
Fe      4.24245245       4.25568296       4.20365831       0.38262257       0.17584571       0.83256253       26 
Fe      2.79608776       2.84117752       5.77879958       1.04224756      -0.03863931       0.28180216       26 
Fe      4.42217644       4.36466658       7.21365159      -0.76908713      -0.30894169      -0.56817548       26 
Fe      2.87267906       5.77120847      -0.02530621       0.21452822      -0.06646764       0.46924329       26 
Fe      4.45491457       7.19975724       1.52270494      -0.89958373       0.18324586      -0.99412756       26 
Fe      2.85802140       5.57601654       2.75308464       0.15085099       1.31409929       0.77914323       26 
Fe      4.32931217       7.15759219       4.20507788      -0.66152426       0.67771836       0.15907389       26 
Fe      2.90896512       5.77060952       5.66680645      -0.12818877       0.02877322       0.44587196       26 
Fe      4.30855700       7.15782060       7.31615015       0.41312639       0.25509637      -1.39284626       26 
Fe      5.74185987       0.05280522      -0.06996605       0.54023093      -0.43127427       0.71095886       26 
Fe      7.12755873       1.36302080       1.53081409       1.22005348       0.79601815      -0.86423286       26 
Fe      5.90284404       0.01247778       2.87161577      -1.28854664      -0.38270690       0.07539708       26 
Fe      7.22349856       1.46194169       4.35627397      -0.21633544      -0.17899069      -0.07714338       26 
Fe      5.76094700       0.08814748       5.74098209      -0.00391630      -1.15907514      -0.00096442       26 
Fe      7.14685198       1.52474687       7.21574956       0.45670376      -0.31988328      -0.02230021       26 
Fe      5.77619664       2.88325878       0.01700632       0.14171380       0.20070288      -0.60815459       26 
Fe      7.13177615       4.25876295       1.52328453       1.07791519       0.65891151      -0.66899795       26 
Fe      5.79371784       2.91675506       2.81692924      -0.45217965      -0.54093439       0.87152348       26 
Fe      7.11961475       4.36997744       4.32617809       0.31042496      -0.46511615       0.31541419       26 
Fe      5.67737624       2.83652054       5.63891467       0.44470314       0.75924315       0.75422590       26 
Fe      7.22891782       4.31967856       7.20469844      -0.15761479       0.43468226      -0.51071827       26 
Fe      5.87350274       5.77004030       0.00696626      -0.51044907      -0.09758416      -0.13239047       26 
Fe      7.23916079       7.10516462       1.43853748       0.27670520       0.66164176       0.32534122       26 
Fe      5.71039654       5.69232697       2.85532246       0.47981232       0.26095977       0.00997639       26 
Fe      7.13480897       7.17716130       4.24777657       0.41156702       0.11517051       0.54591795       26 
Fe      5.63698463       5.89352217       5.66766543       0.87210764      -0.98413214       0.59818077       26 
Fe      7.22103529       7.20120787       7.19342391      -0.29979191       0.14202491       0.19143765       26 
54
Lattice="8.6368128 0.0 0.0 0.0 8.6368128 0.0 0.0 0.0 8.6368128" Properties=species:S:1:pos:R:3:force:R:3:Z:I:1 config_type=bcc_bulk_54_high config_name=bcc_bulk_54_expanded_2_0001 ecutwfc=1224.51225528 pbc="T T T" kpoints="4 4 4" degauss=0.136056917253 energy=-186886.677174
Fe     -0.14619248      -0.01897974      -0.01021829       1.12183477       0.50841225      -0.33018646       26 
Fe      1.51278837       1.53264476       1.45949255      -0.99615051      -1.09284147      -0.51384087       26 
Fe     -0.00068269      -0.07123205       2.75342599       0.06751743       0.98307105       0.92314301       26 
Fe      1.45918897       1.38373063       4.38092727       0.00363400       0.08948673      -0.17315043       26 
Fe     -0.02560221      -0.04941960       5.72765023       0.43796042       0.44280618      -0.31024036       26 
Fe      1.47859501       1.33125527       7.21875088      -0.72494181       0.59718138      -0.33653863       26 
Fe     -0.06854150       2.91753885       0.02520051       0.53743023      -0.15908315      -0.59025097       26 
Fe      1.42608310       4.25079075       1.36182263      -0.01348775       0.31507352       1.19213233       26 
Fe      0.05127486       2.75733463       2.90314262      -0.00453440       1.18016230       0.06320620       26 
Fe      1.54710294       4.22097666       4.41441122      -0.58317710       0.48709626      -0.47704350       26 
Fe     -0.04492785       2.89304890       5.78669526       0.86629180       0.13451060      -0.35542801       26 
Fe      1.42898730       4.31795728       7.20494108      -0.13312606       0.16410426       0.07785172       26 
Fe     -0.10596919       5.76886961       0.03182569       0.86081561       0.25352028      -0.14307212       26 
Fe      1.41658251       7.28058328       1.39312936       0.20921657      -1.10556920      -0.01830883       26 
Fe      0.16971235       5.82257866       2.92351167      -0.79845942      -0.92173456      -0.40066528       26 
Fe      1.54801784       7.19489625       4.24668423      -0.61277075      -0.37134211       0.96406185       26 
Fe     -0.08893330       5.72323307       5.79942185       1.38640514       0.75618765      -0.61811170       26 
Fe      1.49127117       7.16133230       7.16282471      -0.48642777      -0.11837822       0.47102918       26 
Fe      2.84067335       0.02608713       0.04522049       0.19277694      -0.11503681      -0.54849266       26 
Fe      4.21970121       1.43354029       1.50034985       1.08642065      -0.11487869      -1.03404342       26 
Fe      2.84247818      -0.04530513       2.87092676       0.35127542       0.27829389       0.04375015       26 
Fe      4.30491782       1.37638646       4.28332868       0.32211988       0.29081979       0.22720530       26 
Fe      2.93501835      -0.10294227       5.74277606      -0.35218276       0.75094826       0.04154080       26 
Fe      4.28953973       1.46196696       7.06080686       0.31436749      -0.50171169       1.33760611       26 
Fe      2.81726618       2.87027094      -0.05744961       0.56213647      -0.15709029       0.33272260       26 
Fe      4.30059005       4.28241290       1.44585079       0.38323012      -0.23999499       0.50928693       26 
Fe      2.95240214       2.75785913       2.86207737      -0.58988099       1.23775578       0.81773241       26 
Fe      4.32819460       4.28425994       4.43168925       0.09179301       0.14180251      -1.18277814       26 
Fe      2.93653333       2.93229844       5.86150770      -0.69903126      -0.66763809      -0.75459768       26 
Fe      4.33968212       4.34832232       7.27305248      -0.44091770      -0.14376349      -0.15714094       26 
Fe      2.89794461       5.61212879       0.12552963      -0.54560737       1.30429156      -0.84870571       26 
Fe      4.21176978       7.22229565       1.42875836       0.88141837      -0.51004927       0.16855406       26 
Fe      2.95707812       5.66425162       2.95483087      -0.53743691       0.21876719      -0.53670698       26 
Fe      4.36258209       7.21132442       4.28806867       0.10230136      -0.07848498      -0.10127267       26 
Fe      3.03105101       5.78004711       5.79287880      -1.48198255      -0.30002562      -0.04806986       26 
Fe      4.23704970       7.19095699       7.29628207       0.67285486       0.46031796      -0.23194538       26 
Fe      5.74819594       0.02088492      -0.02825175      -0.32974320       0.33878115      -0.32129790       26 
Fe      7.20323807       1.50775077       1.33314087      -0.33702071      -0.40598053       0.60462755       26 
Fe      5.79278128       0.01274021       2.74101886      -0.39055699       0.17529318       0.96344530       26 
Fe      7.22751055       1.54210688       4.30600714      -0.11025816      -1.00565048       0.07290260       26 
Fe      5.79497993       0.06064842       5.68109755      -0.11726904      -0.24716143       0.23735421       26 
Fe      7.19744418       1.61554536       7.09589922      -0.51729952      -1.15829790       0.73415510       26 
Fe      5.66014083       2.93985056       0.00299543       0.67518736      -0.45803894      -0.08635590       26 
Fe      7.23791505       4.33371372       1.50686342      -0.31699542      -0.01543690      -0.07685490       26 
Fe      5.85100568       2.79449004       2.89009143      -0.80125446       0.96141799      -0.06335250       26 
Fe      7.18264155       4.43224769       4.39440169       0.07686853      -0.90835608      -0.65698575       26 
Fe      5.65101166       2.99713398       5.77425834       1.14105017      -0.79702680      -0.12578428       26 
Fe      7.23421718       4.39413190       7.14986932      -0.88056708      -0.42743664       0.78718667       26 
Fe      5.74233506       5.76909642      -0.04950073       0.19608801       0.25774512       0.82105324       26 
Fe      7.13015080       7.23252300       1.47191156       0.17935578      -0.76260178      -0.72723755       26 
Fe      5.74158788       5.68211122       2.88583965      -0.03835623       0.51221234      -0.15132665       26 
Fe      7.18634037       7.15872351       4.20662213       0.02719533       0.36214913       0.68300892       26 
Fe      5.63957206       5.83393489       5.86379099       1.15521643       0.05173162      -0.74211035       26 
Fe      7.25399232       7.27735337       7.11210836      -1.06332700      -0.47032932       0.58834013       26 
54
Lattice="8.6368128 0.0 0.0 0.0 8.6368128 0.0 0.0 0.0 8.6368128" Properties=species:S:1:pos:R:3:force:R:3:Z:I:1 config_type=bcc_bulk_54_high config_name=bcc_bulk_54_expanded_2_0002 ecutwfc=1224.51225528 pbc="T T T" kpoints="4 4 4" degauss=0.136056917253 energy=-186886.741875
Fe      0.03956268      -0.03122588      -0.08638236      -0.74448193       0.11651828       0.91741922       26 
Fe      1.37698425       1.55751403       1.39156977       0.09836758      -0.64434107       0.05486477       26 
Fe      0.04304045      -0.02870341       2.83141836      -0.55042793       0.60377523       0.07260692       26 
Fe      1.34415139       1.60405706       4.33944847       0.84845015      -1.63451376      -0.49028314       26 
Fe      0.06733111      -0.07310951       5.74984954      -0.48397211       0.30216992      -0.19570723       26 
Fe      1.49062837       1.31283474       7.14456456      -0.77598926       1.13607174       0.25198019       26 
Fe     -0.07479550       2.87539354      -0.12603243       0.58713865       0.01809182       0.35885195       26 
Fe      1.39130113       4.34038057       1.37231166       0.21785574      -0.21710138       0.39083776       26 
Fe      0.05671173       2.90832329       2.86491965      -0.69699623       0.08491814      -0.18600440       26 
Fe      1.51762045       4.39127185       4.19259391      -0.32461745      -0.49560712       1.20614664       26 
Fe      0.05556760       2.91043850       5.73078760      -0.81636175      -0.15174316       0.25172514       26 
Fe      1.40002143       4.31441618       7.22656709       0.33371299       0.03438182      -0.55281751       26 
Fe     -0.05411037       5.76668577      -0.07640013      -0.18110439      -0.38441257       0.71345129       26 
Fe      1.34556937       7.13714241       1.48431647       0.64749478       0.49023917      -0.30131195       26 
Fe      0.07821643       5.77026212       2.94898205      -0.51564219       0.20801073      -0.90620072       26 
Fe      1.52042232       7.26625162       4.32647589      -0.52413480      -0.11664272      -0.40455973       26 
Fe      0.06728793       5.68067980       5.71455702      -0.37912381       0.44593058       0.30456850       26 
Fe      1.39252950       7.11692701       7.32021907       0.46616774       0.56978730      -0.93061026       26 
Fe      2.74417964       0.04921674       0.09631635       0.93274042      -0.62764510      -0.17456993       26 
Fe      4.34514889       1.49304206       1.48035377      -0.53502213       0.00602795      -0.36713167       26 
Fe      2.87255964       0.08292293       2.81412814      -0.02289696      -0.16154652       0.75297557       26 
Fe      4.32705603       1.45236115       4.45616331      -0.28360373      -0.05452461      -0.79186428       26 
Fe      2.81969915      -0.02052698       5.78430052       0.84830308      -0.12500678      -0.18908047       26 
Fe      4.38066558       1.21334963       7.25143269      -1.09410774       1.76540039      -0.39833561       26 
Fe      2.82287112       2.89155119      -0.11745215       0.50998165      -0.27105083       0.84903764       26 
Fe      4.32208891       4.28400493       1.53674347      -0.31344575       0.02743213      -0.57609756       26 
Fe      2.84281971       2.87730594       2.87967727       0.58018459       0.20128935      -0.01202171       26 
Fe      4.34607833       4.42732120       4.33237240      -0.33328516      -1.22583306       0.00915184       26 
Fe      2.79023581       2.87086911       5.72555261       0.97861584       0.44142858       0.53531190       26 
Fe      4.31980226       4.32689084       7.26159542      -0.41483309      -0.09798525      -0.62548640       26 
Fe      2.81269965       5.72354937       0.08657215       0.64389781       0.28963502      -0.38022733       26 
Fe      4.29399810       7.22625530       1.45637407      -0.18262288       0.06544692       0.02970884       26 
Fe      2.90715590       5.77674279       2.94749549       0.17835614       0.45588744      -0.77915480       26 
Fe      4.45301051       7.16489443       4.33474422      -1.03294119       0.72180738      -0.11865641       26 
Fe      2.77798188       5.91846480       5.79581261       1.20571418      -1.20469268       0.25847325       26 
Fe      4.39854317       7.24711698       7.29964075      -0.91963396      -0.90493368      -0.32266316       26 
Fe      5.76332718       0.02872081      -0.00021321       0.22571869      -0.63592302       0.79514552       26 
Fe      7.21051591       1.59373821       1.29299501       0.08015465      -1.30828654       1.12624935       26 
Fe      5.69588489       0.09213485       2.89562813       0.79589757      -0.59484039      -0.17893258       26 
Fe      7.17648046       1.40384838       4.30940014       0.66214879       0.09316932       0.11189981       26 
Fe      5.82670723      -0.05897408       5.80177099      -0.27088165      -0.20233245      -0.76516003       26 
Fe      7.15079193       1.29770930       7.19170371       0.87108922       0.91482549      -0.30025497       26 
Fe      5.71904806       2.85784107      -0.00211161       0.06259531       0.42700829      -0.08182896       26 
Fe      7.26933332       4.37222391       1.49303193      -0.37819050      -0.46153898      -0.71002170       26 
Fe      5.83681585       2.86090176       2.92143906      -0.49538627       0.38608841      -0.06472315       26 
Fe      7.27083227       4.35001251       4.25244242      -0.51908952      -0.44978749       0.62037016       26 
Fe      5.78626898       2.77715018       5.83260267      -0.22377287       0.74958352      -0.41467420       26 
Fe      7.17197117       4.25434522       7.18042595      -0.18275195       0.45299880      -0.19826830       26 
Fe      5.70797234       5.70714885       0.08931131       0.33132855       0.15772689      -0.76119668       26 
Fe      7.10731535       7.19727377       1.39130399       0.95060779       0.41484466       0.21441714       26 
Fe      5.80938017       5.78348526       2.77315732      -0.18910515      -0.06497923       1.19102778       26 
Fe      7.29156730       7.14263302       4.30566340      -0.57028661       0.50069765      -0.06575468       26 
Fe      5.68806498       5.69060106       5.69096866       1.11719290       0.33516000       0.96368185       26 
Fe      7.21137603       7.15262179       7.13717882      -0.21900631      -0.38108453       0.26369696       26 
54
Lattice="8.6368128 0.0 0.0 0.0 8.6368128 0.0 0.0 0.0 8.6368128" Properties=species:S:1:pos:R:3:force:R:3:Z:I:1 config_type=bcc_bulk_54_high config_name=bcc_bulk_54_expanded_2_0003 ecutwfc=1224.51225528 pbc="T T T" kpoints="4 4 4" degauss=0.136056917253 energy=-186886.67912
Fe      0.16628027      -0.03202372       0.06216402      -0.97605605       0.87954455      -0.01733823       26 
Fe      1.48763474       1.49744890       1.47815640      -0.39725240      -0.14092833      -0.58804188       26 
Fe     -0.09813154      -0.04097149       2.93089581       1.33188567       0.66239998      -0.15572220       26 
Fe      1.35252538       1.41067230       4.25519371       0.23640625       0.26296703       0.58963442       26 
Fe     -0.03819341       0.02239881       5.87239998       0.30255996       0.01781440      -0.82278334       26 
Fe      1.53732568       1.56666573       7.16030585      -0.58401193      -0.83560003       0.19984362       26 
Fe     -0.00147362       2.98854645      -0.09480252       0.43729270      -0.90424360       0.97193252       26 
Fe      1.46050287       4.29262807       1.41609622      -0.33018183       0.37885127       0.11798329       26 
Fe     -0.10242951       2.83809124       2.87403442       0.74589270       0.53133980       0.17582000       26 
Fe      1.37717640       4.32681437       4.40536999      -0.00982264      -0.03889128      -1.24078788       26 
Fe     -0.06295876       2.92889029       5.81553606       0.65644119      -0.38092564      -0.21079909       26 
Fe      1.65840846       4.37467992       7.21036315      -1.61013199       0.16357435      -0.29922447       26 
Fe     -0.02946527       5.75427317      -0.00810144       0.66849170       0.04071933       0.25077691       26 
Fe      1.47796885       7.14698287       1.49024833      -0.21931432       0.38248553      -0.63922894       26 
Fe     -0.16839596       5.79206242       2.91928324       1.06820670      -0.76393259      -0.37683424       26 
Fe      1.36470307       7.22476663       4.22866279       0.41507889      -0.27655762       0.40986443       26 
Fe     -0.04907395       5.74270256       5.68960297       0.20772251       0.28992941       0.63830360       26 
Fe      1.32203823       7.28578283       7.21053854       1.27793312      -1.02103107      -0.49980728       26 
Fe      2.88875602      -0.03991265      -0.04119736       0.23395984       0.57744868       0.30972485       26 
Fe      4.40711106       1.57423835       1.47985591      -0.69577753      -1.17407573      -0.58865483       26 
Fe      2.93761235       0.06461807       2.75712479      -0.40317185      -0.44528241       0.82573548       26 
Fe      4.23744356       1.41062308       4.43929094       0.84406770      -0.08530972      -1.13150700       26 
Fe      2.84297998      -0.02896350       5.62875070      -0.18954815      -0.08703467       1.02730739       26 
Fe      4.30184460       1.35154835       7.19346782       0.50918846       0.39751234       0.12507054       26 
Fe      2.92560277       2.93749879      -0.05299335       0.27833503      -0.44835128       0.33117659       26 
Fe      4.28113893       4.26757369       1.45200129       0.35591189       0.30283404      -0.06970646       26 
Fe      2.86029520       2.83645321       2.91561878      -0.35721981       0.39232463      -0.32128813       26 
Fe      4.15928155       4.23383741       4.28811473       1.31073886       0.86351552      -0.17835382       26 
Fe      2.91260002       2.89525635       5.69209926      -0.55813789      -0.32190442       0.64331417       26 
Fe      4.36055285       4.36872957       7.05139911       0.11791953      -0.58892325       0.90619172       26 
Fe      3.04645207       5.85160515      -0.07610921      -1.19392747      -0.56569257       0.56152481       26 
Fe      4.39236141       7.25124030       1.42462438      -0.32296115      -0.19936231      -0.10036995       26 
Fe      2.89087334       5.77559269       2.71796734      -0.34030607      -0.35349660       1.23039420       26 
Fe      4.22464874       7.11994688       4.29239728       0.61999915       0.67005673      -0.19392725       26 
Fe      2.84271444       5.79381258       5.71039463       0.01659776       0.21680030       0.03277617       26 
Fe      4.39550855       7.16440855       7.22541304      -0.04442378       0.44332451      -0.75316892       26 
Fe      5.83232698       0.00865203       0.09689605      -0.27937118       0.01231790      -0.66275299       26 
Fe      7.23020343       1.32996176       1.60253017      -0.02201404       1.18964170      -1.48724534       26 
Fe      5.74294854       0.02110440       2.86562836      -0.27338951      -0.23824973       0.86991577       26 
Fe      7.17542538       1.45354086       4.39246425      -0.09239285      -0.43236441      -0.05764927       26 
Fe      5.78185134      -0.08871950       5.75253080      -0.33637382       0.47577698       0.29464276       26 
Fe      7.25491260       1.36966933       7.27485607      -0.41254867       0.47464620       0.09178041       26 
Fe      5.80250852       2.90173374       0.06372050      -0.05911506      -0.49422747      -0.75289638       26 
Fe      7.14794690       4.28849716       1.39944434       0.48542041       0.16957634       0.82723752       26 
Fe      5.74543222       2.82812309       2.92540799      -0.19414785       0.42514219       0.16661468       26 
Fe      7.10680944       4.22469721       4.31613957       0.25892628       0.74918680      -0.15285182       26 
Fe      5.79370452       2.82714013       5.79579110      -0.40501302       0.01762825       0.16642288       26 
Fe      7.24866241       4.35802445       7.21326793      -0.74167172      -0.21536074      -0.29714599       26 
Fe      5.73823684       5.65170065       0.07561027       0.35246147       0.86968026      -0.51436435       26 
Fe      7.33345507       7.28805327       1.44904936      -1.32337840      -1.10566562      -0.22912797       26 
Fe      5.67913011       5.80234621       2.84472057       0.56044443      -0.52081010       0.33207674       26 
Fe      7.21997308       7.28182263       4.32019329      -0.93180839      -0.91465605       0.25889466       26 
Fe      5.76770555       5.69006518       5.68462965      -0.09746821       0.50333766       0.05453001       26 
Fe      7.16483566       7.14335716       7.24124012       0.10905617       0.19250106      -0.06791106       26 
54
Lattice="8.6368128 0.0 0.0 0.0 8.6368128 0.0 0.0 0.0 8.6368128" Properties=species:S:1:pos:R:3:force:R:3:Z:I:1 config_type=bcc_bulk_54_high config_name=bcc_bulk_54_expanded_2_0004 ecutwfc=1224.51225528 pbc="T T T" kpoints="4 4 4" degauss=0.136056917253 energy=-186886.937583
Fe      0.14628755       0.00533184       0.00927846      -1.37751709       0.08792401      -0.11462286       26 
Fe      1.49004011       1.40506071       1.51383094      -0.25589032       0.16468687      -0.23832840       26 
Fe      0.02158841       0.07225071       2.82593856      -0.09306288      -0.91411663       0.53418678       26 
Fe      1.55114347       1.36301168       4.33744093      -0.97644274       0.37589065       0.26689053       26 
Fe      0.09176927       0.02559373       5.76214038      -0.70413901       0.49979288      -0.07170164       26 
Fe      1.48702676       1.52374223       7.27778464      -0.22908760      -0.56698789      -0.84098366       26 
Fe      0.06541960       2.85730596       0.06903951      -0.79464261       0.23166153      -0.42349719       26 
Fe      1.39151994       4.29884923       1.41461239       0.57952587      -0.06759893       0.84219131       26 
Fe      0.01168230       2.88401115       2.88647119      -0.30387971      -0.13612757       0.25968219       26 
Fe      1.34562944       4.32848960       4.37928142       1.02065261      -0.24196857      -0.25321201       26 
Fe      0.04524554       2.91565378       5.87209773      -0.19728177       0.15440606      -0.57079518       26 
Fe      1.60587726       4.38737206       7.23200297      -1.07396391      -0.64576752      -0.58843629       26 
Fe      0.06630466       5.62776931       0.02411544      -0.79117240       1.11101814      -0.54183067       26 
Fe      1.51371711       7.13268968       1.28667993      -0.64770176       0.04350255       1.26803412       26 
Fe     -0.03303354       5.70596262       2.92661904      -0.05101197       0.47382808      -0.80505455       26 
Fe      1.42867698       7.15099689       4.24041576      -0.08738382       0.53910325       0.29483508       26 
Fe     -0.02298144       5.74948334       5.66716447      -0.00593565       0.48318741       1.13565188       26 
Fe      1.36434536       7.22568023       7.09734902       0.76205517      -0.56408357       0.64780640       26 
Fe      2.79646426       0.00998764      -0.03785027       1.25714550      -0.25017090       0.03478163       26 
Fe      4.38178474       1.42737597       1.38737259      -0.62767081      -0.23855389       0.49727937       26 
Fe      2.88186264      -0.02477882       2.86913133       0.19559718       0.03974128      -0.41697662       26 
Fe      4.41769417       1.42099355       4.31980366      -0.69862014       0.04870209       0.07184459       26 
Fe      2.93859763      -0.05354649       5.75983746      -0.52440656       0.50862668      -0.18664332       26 
Fe      4.27916110       1.44031732       7.11206704       0.03200509       0.05609813       0.69207463       26 
Fe      2.80567662       2.84078008       0.12632819       1.13248428       0.34541253      -0.85446936       26 
Fe      4.31673393       4.25150658       1.43682723      -0.17724748      -0.02555497       0.39492658       26 
Fe      2.79118908       2.84434727       3.00158126       0.91151236       0.40686936      -0.80179851       26 
Fe      4.28189180       4.41859300       4.30576709      -0.41250033      -1.33287091       0.26792746       26 
Fe      2.90452680       2.79779332       5.71791355      -0.04724968       0.95977274       0.27083152       26 
Fe      4.35233157       4.36462119       7.12128626      -0.72265276      -0.47905153       0.55947512       26 
Fe      2.92312123       5.70099570      -0.02136235       0.14817139       0.46084889       0.09548871       26 
Fe      4.35311962       7.15585182       1.43296678      -0.29670299       0.14380205      -0.29172662       26 
Fe      2.83222005       5.74755065       2.85067592       0.08429902      -0.24428154      -0.15110373       26 
Fe      4.23773870       7.22553458       4.23951711       0.43419427       0.05692757       0.52646602       26 