126
Lattice="11.3344 0.0 0.0 0.0 11.3344 0.0 0.0 0.0 11.3344" Properties=species:S:1:pos:R:3:force:R:3:Z:I:1 config_type=bcc_doublevacancy_126_high config_name=bcc_doublevacancy_126_0000 ecutwfc=1224.51225528 pbc="T T T" kpoints="3 3 3" degauss=0.136056917253 energy=-436059.537962
Fe      1.25020822       1.52461076       1.52242799       0.08828088       0.13823896      -0.38923802       26
Fe     -0.04611755       0.03219598       2.88171827       0.07880534      -1.44934163      -0.77158573       26
Fe      1.42621881       1.42694224       4.11137529      -0.40642558       0.43651058       1.03373695       26
Fe     -0.16293032      -0.19114026       5.52593428       2.37637446       1.64073043       0.91200216       26
Fe      1.53072187       1.40938879       7.04316864      -0.91489748       0.00947066      -0.55376316       26
Fe      0.05153018      -0.04372792       8.41971107      -0.57856736       0.22174067      -0.02386292       26
Fe      1.26592329       1.23905532      10.07301185       0.54516385       1.19869815      -0.16877492       26
Fe      0.13219418       3.01062762      -0.11090100      -0.55919770      -1.44207286       1.48968069       26
Fe      1.48084199       4.43152394       1.62609047      -0.61879356      -1.65440459      -1.03679913       26
Fe      1.32782674       4.32517863       4.22400707       0.46357812      -0.74923205      -0.78928958       26
Fe     -0.08223255       2.83860890       5.56530785       1.30459366      -0.59139177       0.24424348       26
Fe      1.55541135       4.14011076       7.04094092      -1.42268880       1.49503682      -0.26516481       26
Fe      0.06287757       2.77238243       8.30371205      -0.52077539      -0.61301578       0.87747019       26
Fe      1.32561920       4.12848844       9.79806342       1.99584837       1.18850013       0.64221245       26
Fe      0.03544499       5.78747933       0.08512891      -0.94824777      -1.76258658      -0.39206134       26
Fe      1.24027141       7.20883654       1.45148682       1.82601492       0.01506924       0.46170456       26
Fe     -0.01702996       5.79855007       2.78706964      -0.53227003      -0.86007076       1.35946795       26
Fe      1.50833601       7.12817738       4.19196733      -0.79084767       0.36590346       0.96540680       26
Fe      0.08498471       5.72941749       5.51560851      -0.76962115      -0.54103286       0.99172538       26
Fe      1.53229144       6.93117077       7.07915802      -0.94835113       0.55173276       0.32765907       26
Fe     -0.01381506       5.45620456       8.48264997       0.45865317       1.53736591      -0.85161157       26
Fe      1.34475729       7.04268441      10.00082409       0.99902294      -0.63221652      -0.47579266       26
Fe     -0.10480006       8.42750192       0.02892819       0.60813839       0.22918762      -0.14064680       26
Fe      1.30593352      10.07898004       1.36522703      -0.64560014      -0.79054248       0.08564602       26
Fe     -0.18018568       8.49905818       2.88171363       1.43140381       0.56660376      -0.08505286       26
Fe      1.56731247       9.88813386       4.36356012      -1.41604199       0.14847941      -0.53458865       26
Fe      0.12600503       8.48683857       5.67790902      -0.13932525      -0.67664209       0.02310753       26
Fe      1.45277684       9.91712256       7.24266724      -0.20514960      -0.12741719      -1.13930413       26
Fe      0.09804024       8.17518641       8.52178857      -0.95193730       2.14707139      -0.60901437       26
Fe      1.27629724      10.06260829      10.00465651       0.59494066      -1.26691595      -0.06791466       26
Fe      2.84966645       0.02136144       0.03697452      -0.29831841      -0.04864090       0.49455863       26
Fe      4.23668547       1.46229898       1.48218773       0.56805978      -0.46584815      -0.32158072       26
Fe      2.69863075      -0.07683765       2.77080411       0.88658912       0.82388865       0.47807169       26
Fe      4.23709188       1.30699723       4.15102162       0.10800973       1.71036799       0.62698072       26
Fe      2.88158371       0.11372183       5.64749240      -1.10361259      -0.15414072       0.95804830       26
Fe      4.30614075       1.61308060       7.01232660      -0.91980443      -1.26543808       0.34761854       26
Fe      2.77797429       0.07329890       8.60173908       0.20707613      -0.59923826      -0.67250287       26
Fe      4.13862612       1.35498608       9.92158785       0.69770020       1.28964424      -0.04095536       26
Fe      2.89686264       2.79930556       0.14709102      -0.82697886       0.78231649      -0.83491792       26
Fe      4.40840493       4.33639093       1.45135615      -1.53357199      -0.84641563       0.01732821       26
Fe      2.94822777       2.77142546       2.82821832      -0.73984238       1.31971921       0.31128114       26
Fe      4.20201499       4.40656817       4.13190621       0.80631028      -0.43600047       0.67831562       26
Fe      2.84303534       3.06112372       5.58662670       0.16634163      -2.18758967      -0.73198123       26
Fe      4.22836440       4.29395640       6.98650999       0.61184438       0.37297887       0.13349759       26
Fe      2.77692600       2.83378995       8.52255585       0.86285321      -0.39986181       0.11685509       26
Fe      4.25592711       4.27267101       9.90241763      -1.10643515      -1.05005908       0.33155018       26
Fe      2.69515866       5.61865585       0.06347586       1.14504617       0.25487217      -0.43032424       26
Fe      4.24565577       7.14375626       1.36832239      -0.58388055      -0.51105920       0.30453817       26
Fe      2.82410445       5.81856101       2.83601421       0.65261154      -0.33745471      -0.23949928       26
Fe      4.23319050       7.12583822       4.31474045       0.79315009       0.40099387      -0.25435178       26
Fe      2.93706634       5.75234166       5.69440203      -0.59714333      -0.30163102      -0.59642393       26
Fe      4.20061233       7.25133790       7.12420062       1.46058660      -1.65934573       0.73102581       26
Fe      3.00231367       5.61529498       8.48428715      -1.87333890       0.46406072       0.52079699       26
Fe      4.26824830       7.05087702       9.99144156      -0.66628209       0.22615320      -0.21500541       26
Fe      2.64360324       8.55932919       0.02051115       1.06792337      -0.18799469       0.26579884       26
Fe      4.20862877       9.93945327       1.49762445       0.01507618      -0.16616345      -0.64417369       26
Fe      2.91233664       8.54385751       2.98637088      -0.59734002       0.14351898      -1.14785202       26
Fe      4.16476133      10.07290969       4.44481700       0.62568540      -1.37176528      -2.08269663       26
Fe      2.95014513       8.54023361       5.91523243      -2.24088658       0.15599860      -2.09240100       26
Fe      4.14140624       9.95943513       7.20918569       0.33920898       0.81363484       0.46292866       26
Fe      2.73402224       8.45828824       8.61715074       0.69696538       0.23546574       0.39361789       26
Fe      4.24992655       9.89440747       9.99579621      -0.73479248      -0.17283572       0.17232202       26
Fe      5.52551500       0.08282548       0.05085251       1.51759285      -0.81102903      -0.32806736       26
Fe      7.22698980       1.46729668       1.33137287      -1.32359360      -0.39035439      -0.02473144       26
Fe      5.66359942      -0.01120893       2.84726950       0.69163291      -0.43196872      -0.34427199       26
Fe      7.20330914       1.24973237       4.28182832      -1.73284406       2.02980827      -0.44111182       26
Fe      5.54471468       0.05104424       5.65396183       1.58347248       0.10984215       1.11780919       26
Fe      7.07511033       1.34921271       7.13742186      -0.47454799       0.33374384      -0.21495399       26
Fe      5.51420774      -0.10929497       8.57131385       1.38360495       1.05131121      -0.49173273       26
Fe      6.99463267       1.48672171       9.72592630       0.24651582      -0.76637359       0.80962212       26
Fe      5.66623378       2.78411492      -0.07525037      -0.04889030       0.07124038       0.33568220       26
Fe      7.07235251       4.23548548       1.34140880       0.30546171      -0.34721102       0.69508359       26
Fe      5.71103584       2.87784866       2.95343002       0.16456191      -0.30234399      -0.67548690       26
Fe      7.11153899       4.44571127       4.37875237       0.01607891      -1.98374413      -1.07368932       26
Fe      5.66363354       2.91971071       5.60876442       0.51516139      -0.34781574      -0.10864556       26
Fe      7.11582549       4.30402784       7.16244186       0.31582659      -0.38599457      -0.66179860       26
Fe      5.55201012       3.00924398       8.39910709       0.92668907      -1.62192641       0.72969861       26
Fe      7.07917293       4.23974819       9.85975768       0.56669350      -0.25749881      -0.33061301       26
Fe      5.64448509       5.44186292      -0.11564884       0.44154788       2.51221920       1.00645652       26
Fe      7.03674010       7.15143019       1.43389489       0.51107051      -0.67616670      -0.36355064       26
Fe      5.79128281       5.73424490       2.75369624      -1.40762754      -0.07755193       0.62619705       26
Fe      6.97527487       7.10269430       4.26084170       0.68562938       1.13247682       0.20246923       26
Fe      5.77333667       5.72522061       5.62787724      -1.66678907       0.29163149       0.93843747       26
Fe      6.93009461       7.07350237       7.19888633       1.20062828       0.17244646      -0.81443805       26
Fe      5.55451750       5.63631858       8.46927180       1.15360615       0.71479418       0.22642651       26
Fe      7.13588745       6.95634056       9.98739145      -0.31554223       0.70996796      -0.47623746       26
Fe      5.62725114       8.42715899       0.03722960       0.36809352       0.81444499      -0.44809699       26
Fe      7.21366355       9.86885109       1.31052932      -1.88007545       1.34715236       1.12505739       26
Fe      5.61151009       8.52534265       2.80014877       0.40794870       0.49558553       0.92409277       26
Fe      7.18216939       9.89389070       4.38868738      -1.32756467       0.34363102      -1.17091353       26
Fe      5.48023616       8.78897863       5.75036880       1.95055376      -2.28887236      -0.26296317       26
Fe      7.10527220       9.75569985       7.22327656      -0.18527909       1.96058543      -1.14569461       26
Fe      5.68868464       8.55575865       8.58321002      -0.50605840      -0.91259711       0.49420690       26
Fe      7.23445574       9.83500132       9.98987600      -1.66433007      -0.00029979      -1.50202199       26
Fe      8.41333879      -0.00520251      -0.28128049       0.32360084       0.46156109       2.05716840       26
Fe      9.96686678       1.30741803       1.14241242       0.29819243       0.22834815       0.82070254       26
Fe      8.46480433       0.04580900       2.79582385       0.81203433      -0.89153026      -0.46138240       26
Fe      9.99510328       1.43342620       4.01423691      -0.62852621       0.78273249       0.73143590       26
Fe      8.40756014       0.08687466       5.66554122       1.18224001      -1.90127908       0.54321315       26
Fe     10.03255138       1.21967268       6.92443811      -0.38808822       1.35785381       0.69407366       26
Fe      8.64389500      -0.07816894       8.37062711      -0.60280695      -0.05765056       0.99878383       26
Fe     10.01742444       1.31744960      10.03054261       0.32477249       0.32405875      -1.50486769       26
Fe      8.52250073       2.90419273      -0.16655085       0.05252584      -0.77471605       1.02910434       26
Fe     10.07396961       3.99019123       1.56313361      -0.30271834       0.75157047      -0.03499014       26
Fe      8.32187129       2.86502440       2.86069328       0.85902921      -0.33287095      -0.22935140       26
Fe      9.84211686       4.08680074       4.19903709       0.48268579       1.26022619      -0.22173939       26
Fe      8.51072908       2.73552012       5.74606860      -0.47555715       0.44686415      -0.72332021       26
Fe      9.90020210       4.18932973       6.96590096       0.51317933       0.27197823       0.61455844       26
Fe      8.68604988       2.68297315       8.52845997      -0.66828986       0.72806184      -0.68138475       26
Fe     10.06607513       4.18023295       9.92581914      -1.41472944       0.66573779      -0.20385043       26
Fe      8.50929128       5.55790002       0.12103198       0.60790982       0.56541180      -0.90010438       26
Fe      9.86928316       7.04393189       1.50547926      -0.74126111       0.27297890      -0.82932422       26
Fe      8.43504978       5.69319961       2.84224556       0.47793259      -0.58831416      -0.25239491       26
Fe      9.69888544       7.04060700       4.26608280       1.93143863       0.37825889      -0.74361136       26
Fe      8.57268275       5.68968441       5.66991910      -1.13198446      -0.27308329       0.57177297       26
Fe      9.91182262       7.03517686       6.93587622       0.64774058      -0.08954124       1.21832673       26
Fe      8.61864730       5.64722952       8.55186417      -0.74882967      -0.38869551      -0.64781231       26
Fe      9.88968128       7.04352420       9.88182921       0.08492482      -0.19557404       0.80386182       26
Fe      8.45704303       8.52257999       0.06956902       0.91480286      -1.53560599      -1.36607054       26
Fe      9.86259310       9.85506862       1.25701752       0.61423242       1.48392631       1.24959931       26
Fe      8.48481233       8.57519255       2.81859057      -0.49340832      -0.53437293       0.42677792       26
Fe      9.94592146       9.83434237       4.31376995      -1.04765742       0.43856797      -1.21796652       26
Fe      8.54067769       8.49644513       5.61999400      -0.98586327      -0.35513722       1.09175929       26
Fe      9.98880864       9.79951169       7.02124635       0.04042828       0.16930303       0.67052004       26
Fe      8.58082133       8.47876328       8.41219818       0.03700486      -0.74971053       1.19626383       26
Fe     10.14750097       9.92461085      10.03519799      -1.28507462       0.02592083      -1.21203704       26
126
Lattice="11.3344 0.0 0.0 0.0 11.3344 0.0 0.0 0.0 11.3344" Properties=species:S:1:pos:R:3:force:R:3:Z:I:1 config_type=bcc_doublevacancy_126_high config_name=bcc_doublevacancy_126_0001 ecutwfc=1224.51225528 pbc="T T T" kpoints="3 3 3" degauss=0.136056917253 energy=-436057.846096
Fe      1.34998066       1.38876241       1.28055517      -0.71032020      -0.07282367       0.81526543       26
Fe      0.19115964      -0.09506893       2.88660139      -2.29935912       0.66348216      -0.61011480       26
Fe      1.12832024       1.50932551       4.17317058       1.62622195       0.37499745      -0.06350676       26
Fe     -0.00953221       0.13139662       5.55780317      -0.59842528      -0.85000541       1.11601174       26
Fe      1.38851731       1.44801994       7.09087540      -0.83745662      -0.58198153       0.23570459       26
Fe     -0.05185368       0.02044538       8.42916233       0.19485208       0.27773364       0.82221949       26
Fe      1.37151724       1.22404476      10.10700503      -0.68647296       0.09601630      -0.94475158       26
Fe     -0.02446555       3.06519959       0.07262171       0.90498048      -1.68305953      -1.95801304       26
Fe      1.28599947       4.23958015       1.44087015       0.94850462       0.18115067       0.09203778       26
Fe      1.34672408       4.09849871       4.31039652      -0.20752582       1.05444950      -1.06185222       26
Fe      0.05103213       2.91657044       5.86684871      -1.47819532      -1.21739804      -0.57712652       26
Fe      1.32052334       4.25566146       7.22205018       0.59424107       0.27890581      -0.60099535       26
Fe     -0.11870119       2.80635229       8.76506690       0.73557152      -0.78605410      -1.81628355       26
Fe      1.36168616       4.16658912       9.78252556       0.85465756       0.78463151       1.22360392       26
Fe      0.03041108       5.92421753      -0.04500573      -0.50530610      -1.71956868       0.00636631       26
Fe      1.45479421       7.13914824       1.39748607      -0.06161520      -0.02265579      -0.47424280       26
Fe      0.07320903       5.87929303       2.68388984      -0.36389208      -2.02924211       1.11747778       26
Fe      1.44453401       7.00468807       4.31990880       0.38618792       0.27162933      -0.08261957       26
Fe     -0.03949170       5.56401240       5.64269412       0.50016775       0.85848233       0.55574060       26
Fe      1.58961062       7.06533538       7.15387558      -1.65643756       0.25166394      -0.69047283       26
Fe     -0.09688720       5.85370288       8.61429661       1.01555848      -1.15176961      -0.98548763       26
Fe      1.47007090       7.04949976       9.83610641       0.43717443       0.95852498       0.35598491       26
Fe      0.01267865       8.53813183      -0.12335040       0.33433931      -0.68113921       1.29801987       26
Fe      1.21044865       9.92350087       1.26798298       1.68584223       0.33871815      -0.06405929       26
Fe      0.17508351       8.51230952       2.97627092      -1.17013114       0.42643776      -1.58010613       26
Fe      1.46138338       9.91469078       4.26870333       0.05430427       0.03993155       0.70764934       26
Fe      0.06855754       8.45351811       5.65365606      -0.08322969       0.41537971       0.46989892       26
Fe      1.29605953       9.89540311       7.23114677       1.56901208       0.63101658      -1.72805358       26
Fe      0.05240216       8.58587244       8.48013730      -0.58396822      -1.29729559       0.17733387       26
Fe      1.39430870       9.86393078       9.87596168       1.33415107       0.79584229       0.52791663       26
Fe      3.13629468       0.04287349       0.02514955      -1.30036986      -0.84000356      -0.67087871       26
Fe      4.43267543       1.30194552       1.55186296      -1.57814618       0.62273249      -1.21917468       26
Fe      2.67279492       0.05509944       2.73294536       0.84874351      -0.68030951      -0.04788757       26
Fe      4.14102416       1.29610861       4.16617688       0.14005339       0.79158172       0.47767291       26
Fe      2.77182865      -0.00346532       5.84437537      -0.46834006       0.13003817      -1.77196905       26
Fe      4.29414792       1.42898289       6.93825293      -0.17606323       0.36952665       1.01951361       26
Fe      2.83866707       0.07985859       8.51007098       0.16138634      -0.93956593       0.44033149       26
Fe      4.44190905       1.32421639       9.77239431      -1.14224419       0.50670092       0.77203825       26
Fe      2.72126074       2.63323737      -0.02512546       1.36209099       1.42845784      -0.03217324       26
Fe      4.17539779       4.08537327       1.44924662      -0.17543948       1.04865860      -0.55302037       26
Fe      2.70943424       2.76535425       2.76735127       0.29248663      -0.17260072       0.17396495       26
Fe      4.14202873       4.12121712       4.25721004      -0.76658905       0.56038658      -0.33054590       26
Fe      2.73814136       2.76809547       5.61897265       0.25581191      -0.01810391       0.11217723       26
Fe      4.19446334       4.21832135       6.97381328      -0.03489013      -0.09313127       1.03746479       26
Fe      2.78513839       2.72374440       8.31995990       0.73623101       0.68472847       1.89266820       26
Fe      4.19212531       4.18121326       9.99942947       0.28447765      -0.04738594      -0.58853913       26
Fe      2.70693751       5.59183112      -0.08753403       0.74555871      -0.28630982       0.56742678       26
Fe      4.17308325       7.02929153       1.28451786       0.09897899      -1.11801822       2.00307085       26
Fe      2.72395185       5.59483530       2.79850934       0.41947239      -0.31872423       0.09924844       26
Fe      4.20387706       6.94442544       4.19329819      -0.35283865       1.26312537       0.95052423       26
Fe      2.74513650       5.62990359       5.67121649       0.51370306      -0.31469094       0.04498093       26
Fe      4.30533626       7.15334245       7.08553233       0.10854735      -0.38124163      -0.68919808       26
Fe      2.90305082       5.64852065       8.40396909       0.03217684      -0.50663073       1.14375728       26
Fe      4.31381347       7.00419084       9.97071095      -0.49177284       0.87245885      -0.98965564       26
Fe      2.90355371       8.42920724       0.05133021      -1.21771198       0.53068417      -1.75472543       26
Fe      4.11262153       9.74310427       1.38224517       0.68402682       2.10536322       1.30809422       26
Fe      2.81947761       8.36349703       2.82305549      -0.19351973       0.80475553       0.32117372       26
Fe      4.06070497       9.98164537       4.13183838       1.19322350      -0.22711762       0.55336875       26
Fe      2.85053093       8.55247175       5.75558377      -0.22487176      -0.45249255      -0.94992927       26
Fe      4.16336678       9.99608612       7.07298923       1.41701155      -0.60195335      -0.01679959       26
Fe      3.02972409       8.43667985       8.46090864      -1.02715570       0.85816043       1.11861446       26
Fe      4.45954740       9.81728366       9.93492803      -0.83937852       0.26016684      -0.17993582       26
Fe      5.78415691       0.00223060       0.05038120      -0.40423423      -0.35304048       0.14258232       26
Fe      7.18396487       1.49926985       1.48020093      -0.08808394      -1.21840643       0.13455251       26
Fe      5.83300002       0.01020845       2.81699948      -1.02862842      -0.66077736       0.05741248       26
Fe      7.12127968       1.36621496       4.23825598       0.11598992       0.86900792       0.16806504       26
Fe      5.64305187       0.12075339       5.64037100       0.36704323      -1.26872909      -0.56063135       26
Fe      6.98845524       1.44393155       7.26990642       0.95440736      -0.18994230      -1.66041068       26
Fe      5.80554824      -0.19350283       8.41817132      -0.83495545       0.84937471       0.46637291       26
Fe      6.97828237       1.35553584       9.83732175       1.01893562       0.47665038       1.21403658       26
Fe      5.78225651       2.79958047       0.17638099      -1.95968169      -0.29823896      -2.07997203       26
Fe      6.99348474       4.19331276       1.39031130       0.52947498       1.05170022       0.95687536       26
Fe      5.60541968       2.81046700       2.82753850       0.77072107       0.13998088       1.03016954       26
Fe      7.08043829       4.28400915       4.52772885       0.44450773      -0.19477803      -2.59363473       26
Fe      5.61725755       2.97306569       5.49710305      -0.00870036      -2.24553565       1.86643935       26
Fe      7.09787532       4.21498732       7.14870612      -0.28383564       0.65812964      -0.34024179       26
Fe      5.63678139       2.89493368       8.49720015      -0.62596308      -0.19193516      -0.48057054       26
Fe      6.97337392       4.18573690       9.85034043       0.25048278       1.21562733       0.63288963       26
Fe      5.65041507       5.81695968       0.00130306      -0.11291359      -2.33644265       0.09024701       26
Fe      7.00837200       6.96842967       1.48680520       0.42874610       0.49451158       0.22237882       26
Fe      5.49459840       5.53138697       3.06536997       1.41542852       0.17663890      -2.23497021       26
Fe      7.13950101       7.00345493       4.19242564      -0.96846127       0.44554440       0.32362552       26
Fe      5.51847477       5.65035710       5.77708559       1.14367115       0.52093506      -0.89543937       26
Fe      7.18181672       7.26766280       6.89567839      -1.05780916      -1.12067109       0.97264754       26
Fe      5.69038218       5.77562290       8.41999389      -0.46852184      -1.18137380       0.10635214       26
Fe      6.98140078       7.07423385       9.79377481       0.98910337       0.77123761       1.64738599       26
Fe      5.62927283       8.54764575       0.28979602       1.08945198      -0.85755288      -2.90575019       26
Fe      7.11353093       9.83667968       1.43293983       0.09848482       1.12379935       1.06043117       26
Fe      5.57774876       8.50223464       2.77253498       0.41529743      -0.54301055       1.44037542       26
Fe      7.21303103       9.99025627       4.06933654      -1.22036047      -1.05452766       1.44914777       26
Fe      5.61905358       8.56049224       5.52778703       0.28451930       0.21595569      -0.10167736       26
Fe      7.20235965      10.02864989       6.83675060      -0.69480128      -1.07703767       1.36837682       26
Fe      5.83869331       8.51648262       8.38540211      -0.98630858       0.60505384       0.14580417       26
Fe      7.19534632       9.93606415      10.12024055      -0.73336834      -0.90272048      -0.77020865       26
Fe      8.46865795       0.01151670       0.13088002      -0.01482524       0.68520027      -0.76984150       26
Fe     10.03536454       1.57865546       1.27439755       0.04489120      -0.83931605       1.58359666       26
Fe      8.72629068      -0.05899306       2.86668634      -1.43469071       1.89950862      -0.87908690       26
Fe      9.87308983       1.68527344       4.13749797       0.91047852      -1.53459375       0.56997500       26
Fe      8.56852184      -0.11550165       5.57373863       0.13894138       1.83601651       0.31513188       26
Fe      9.75964317       1.29077538       7.20144717       0.71235934       1.01175505      -0.50261544       26
Fe      8.51259191      -0.01337356       8.76481063       0.25869951      -0.27359314      -1.57104582       26
Fe      9.84035847       1.49940871      10.14534178       0.71624788      -1.25025700      -0.95833112       26
Fe      8.36481687       2.82256342      -0.09491505       0.77547144       0.90516688       0.94520461       26
Fe     10.07803531       4.17139906       1.40845463      -1.74304131       1.67680481       0.76852561       26
Fe      8.50639426       2.87910553       2.80403773      -0.74061525       0.32249604      -0.05136421       26
Fe      9.97321158       4.15257574       4.16425177      -0.02049503       0.87188858       0.42179332       26
Fe      8.44613619       2.74088925       5.80996079       0.46840485       0.57598572      -0.45525392       26
Fe     10.03784307       4.24864027       7.19155951      -1.67097766       0.39449952      -0.31924513       26
Fe      8.52991136       2.93777760       8.60363502      -0.36173030      -0.73086074      -0.57270319       26
Fe      9.95639391       4.36797509       9.90289608      -1.20768005       0.33425626       0.87615430       26
Fe      8.32608331       5.60311709      -0.03971919       1.23658644       0.72834518       0.04982849       26
Fe      9.98693856       7.16322614       1.42795107      -0.58304083      -0.28873282       0.06852453       26
Fe      8.47711001       5.55629156       2.78039645       0.57699668       0.38711043       0.25616337       26
Fe     10.13457819       7.03439831       4.19306714      -2.02646918       0.15579419       0.50317928       26
Fe      8.43762765       5.70348326       5.67043346       1.59191367      -0.35581136       0.33535309       26
Fe     10.01713004       7.09451748       7.12645948      -0.81285502       0.44895369      -0.86449743       26
Fe      8.42618328       5.81619268       8.40367785       0.58733277      -0.85682834       0.70237986       26
Fe      9.87398128       7.29295896       9.89787715      -0.62453637      -1.16304647       0.47954518       26
Fe      8.56519156       8.53619454       0.28084872      -0.38392277      -0.45807313      -2.21809066       26
Fe      9.93499461      10.21130348       1.31786785       1.59571067      -1.77130210       0.37164936       26
Fe      8.48259242       8.44780281       2.86265721       0.88015930      -0.21203656      -0.23792551       26
Fe      9.91166760       9.97186732       4.17206923       1.45351427      -1.18506205       0.67900957       26
Fe      8.59504679       8.43813802       5.59954944       0.31089342       0.55970138      -0.50474328       26
Fe      9.93579402       9.88535153       7.03088085      -0.17640596       0.23339677       0.34301447       26
Fe      8.40622175       8.56884108       8.61371829       1.09243883       0.36336603      -1.05613151       26
Fe     10.13822897       9.93389595       9.97295644      -1.62747305       1.16459479       0.29398250       26
126
Lattice="11.3344 0.0 0.0 0.0 11.3344 0.0 0.0 0.0 11.3344" Properties=species:S:1:pos:R:3:force:R:3:Z:I:1 config_type=bcc_doublevacancy_126_high config_name=bcc_doublevacancy_126_0002 ecutwfc=1224.51225528 pbc="T T T" kpoints="3 3 3" degauss=0.136056917253 energy=-436058.017251
Fe      1.44131080       1.46251822       1.60282688      -0.36595102      -0.76296997      -0.58390729       26
Fe      0.00273734      -0.06335511       3.08401244       0.98696936       0.19530794      -0.89379104       26
Fe      1.60595142       1.63048646       4.19375774      -1.77332068      -1.44873382      -0.22723615       26
Fe     -0.01586519       0.06332856       5.58500334      -0.31620943       0.06812472       0.57983209       26
Fe      1.39572459       1.44628484       6.92433433      -0.59331830       0.62458960       1.35476514       26
Fe     -0.10668163       0.05840926       8.33417301       0.74149457       0.45405321       0.87063054       26