54
Lattice="8.5008 0.0 0.0 0.0 8.5008 0.0 0.0 0.0 8.5008" Properties=species:S:1:pos:R:3:force:R:3:Z:I:1 config_type=phonons_54_high config_name=bcc_bulk_54_0000 ecutwfc=1224.51225528 pbc="T T T" kpoints="4 4 4" degauss=0.136056917253 energy=-186887.234986
Fe     -0.00607641       0.00230075      -0.02907879      -0.73492052      -0.02561024       0.61799986       26 
Fe      1.32012806       1.31778495       1.44496509       0.44297176       1.18663711      -0.28337233       26 
Fe     -0.01845451      -0.12003023       2.89408200       0.78139089       0.95602536      -0.81690734       26 
Fe      1.46106487       1.40972354       4.23383561      -0.56505159       0.20405663       0.65359781       26 
Fe     -0.08547074      -0.02755961       5.56004471       0.93733292       0.38150825       0.89874118       26 
Fe      1.33368025       1.41571919       7.19346791       0.24917409       0.54624011      -1.14236606       26 
Fe     -0.09022009       2.87018932       0.03689054       0.65569660      -0.89301508      -0.37026970       26 
Fe      1.38023606       4.25219849       1.39411437       0.38511499       0.01800029       0.38041193       26 
Fe      0.02736614       2.82405826       2.82626588      -0.13771265      -0.50002479      -0.09061622       26 
Fe      1.44871101       4.28644349       4.12067500       0.20471509      -0.24689455       1.74368126       26 
Fe     -0.11827625       2.84578949       5.60912948       1.30054958      -0.51928724       0.55312990       26 
Fe      1.41833802       4.31039052       7.12803923       0.12221559      -0.19353516       0.12808310       26 
Fe     -0.04922659       5.67648874       0.04684661       0.70402177      -0.08470062      -0.41222188       26 
Fe      1.42682199       7.07027512       1.50018947      -0.01132340       0.03432577      -0.35916794       26 
Fe      0.01385902       5.54984117       2.86969217       0.16998617       0.93036626      -0.27585134       26 
Fe      1.49901383       7.07735992       4.34368735      -0.03244989      -0.10148324      -0.80693249       26 
Fe      0.11557809       5.55443189       5.71104307      -0.91182887       0.81779591      -0.91598505       26 
Fe      1.27371968       7.20432493       7.08624316       1.75373247      -1.00075972       0.07263983       26 
Fe      2.88318017       0.05111510       0.01589963      -0.68415717      -0.63005216      -0.28402899       26 
Fe      4.18723568       1.39423562       1.43406421       0.55334150       0.79575667      -0.62836886       26 
Fe      2.79747282       0.09886436       2.73933462       0.41831873      -1.30416892       1.20774227       26 
Fe      4.21325993       1.41793557       4.24930091       0.11545564       0.39980756       0.01606759       26 
Fe      2.89624906       0.05220532       5.69354961      -0.96343888      -0.43935190      -0.15705018       26 
Fe      4.18704903       1.40273203       7.03654409       0.54167769       0.71967850       0.79562915       26 
Fe      2.79249371       2.89956891       0.02615779      -0.25407333      -0.92146382      -0.23543540       26 
Fe      4.18974336       4.17340176       1.33418356       0.79556178       0.64881633       1.05062344       26 
Fe      2.79216219       2.86212906       2.89695766       0.14589288      -0.46218664      -1.08920490       26 
Fe      4.24824411       4.22802658       4.17305353      -0.02856881       0.44025744       0.86330958       26 
Fe      2.78851325       2.91669394       5.76352260      -0.25736382      -0.46165725      -0.87866086       26 
Fe      4.20673972       4.31580756       7.07995888       0.44664586      -0.12376725       0.32471644       26 
Fe      2.84460488       5.76408346       0.17517992      -0.17374666      -0.13211511      -1.75695663       26 
Fe      4.37555988       7.14725100       1.38945417      -0.74110659      -0.49548705       0.80605574       26 
Fe      2.98302023       5.68374135       2.82764498      -0.81986848       0.32616629       0.05558982       26 
Fe      4.33220611       7.18748306       4.19201346      -0.55642657      -0.84890317       0.21657070       26 
Fe      2.96463360       5.74231072       5.70644683      -0.96596190      -0.14117953      -0.32443928       26 
Fe      4.37344771       7.10654699       7.06968190      -1.00382834      -0.04964594       0.47649920       26 
Fe      5.67727208      -0.00467150       0.01764239       0.48491622       0.25522749      -0.26099936       26 
Fe      7.09022841       1.38845520       1.51233512      -0.19932528       0.11156068      -1.12557701       26 
Fe      5.64983669       0.04753654       2.81870127       0.54275961      -0.45342920      -0.01692043       26 
Fe      7.14698372       1.38195472       4.19873161      -1.20321095       0.29246324       0.28309414       26 
Fe      5.63287032      -0.01957185       5.64609535       0.71183150       0.36111658      -0.40281884       26 
Fe      6.98837173       1.34587890       7.01406871       0.52500563       0.77216989       0.39606275       26 
Fe      5.68174508       2.84929944      -0.07611236      -0.46690513      -0.55289002       0.50815668       26 
Fe      7.10799053       4.20674836       1.42566468      -0.78425587       0.17717549       0.03785564       26 
Fe      5.58501339       2.79776838       2.77156884       0.46862134      -0.10335012       0.20150429       26 
Fe      7.01913555       4.08609799       4.17865277       0.60740126       1.15806033       0.82015978       26 
Fe      5.54290499       2.89351839       5.63946793       0.80576084      -0.76240638       0.15185706       26 
Fe      7.13923713       4.23169921       7.10373097      -1.02131029       0.33960210      -0.39149442       26 
Fe      5.59783848       5.64257523       0.07684766       1.20393189       0.06259736      -0.60913290       26 
Fe      7.19032929       7.04405464       1.40219877      -1.21125722       0.14586948       0.33068243       26 
Fe      5.79102063       5.59634962       2.96411693      -1.07142521       0.49150596      -1.82560791       26 
Fe      7.15889847       7.06397385       4.13956104      -0.67244143      -0.52853473       1.44707263       26 
Fe      5.72899029       5.70130258       5.64464855      -0.03434505      -0.58294133      -0.11144832       26 
Fe      7.13272531       7.05116800       7.01699858      -0.56772065      -0.01394489       0.53430094       26 
54
Lattice="8.5008 0.0 0.0 0.0 8.5008 0.0 0.0 0.0 8.5008" Properties=species:S:1:pos:R:3:force:R:3:Z:I:1 config_type=phonons_54_high config_name=bcc_bulk_54_0001 ecutwfc=1224.51225528 pbc="T T T" kpoints="4 4 4" degauss=0.136056917253 energy=-186887.289701
Fe     -0.08331153      -0.19179932       0.01957245       0.02576528       1.75036947      -0.23451674       26 
Fe      1.44526287       1.43361041       1.27738320      -0.69653703      -0.59306736       1.12285473       26 
Fe      0.08291577      -0.06393148       2.77345950      -0.43641724       0.58675453       0.45471758       26 
Fe      1.47783213       1.42833566       4.19165138      -0.58721964      -0.21007481       0.30332563       26 
Fe      0.08595906      -0.00789847       5.64709763      -0.97124834       0.31937292      -0.28981526       26 
Fe      1.34033491       1.35629983       7.15399013       0.18711949       0.47485395      -0.64677050       26 
Fe     -0.04267003       2.82452074      -0.04489871      -0.15542473       0.12798437       0.58143826       26 
Fe      1.35510260       4.27345305       1.47956507       0.82848604      -0.41731626      -0.77555654       26 
Fe      0.03877109       2.75129681       2.82767210      -0.27625217       0.70276887       0.16849184       26 
Fe      1.46164636       4.22090199       4.39946546      -0.02509885       0.19426690      -1.25789086       26 
Fe     -0.00951720       2.81438412       5.73021249       0.15301355       0.55918870      -0.68337298       26 
Fe      1.36868558       4.36529636       7.19727081       0.48781822      -0.76643170      -1.07811342       26 
Fe     -0.01826988       5.56003565       0.00884950      -0.36159609       1.35113963       0.22241739       26 
Fe      1.49313936       7.12032658       1.33408736      -0.63717952      -0.62100008       1.08738173       26 
Fe      0.02927108       5.60730043       2.73257490      -0.01267142       0.29141268       1.14298004       26 
Fe      1.48230576       7.06074177       4.23555689      -0.25835884       0.28930464      -0.27388650       26 
Fe      0.03580274       5.74103635       5.57172502       0.28041145      -1.21153259       1.42558643       26 
Fe      1.44506216       7.19340755       7.09592309      -0.59607015      -1.44898090       0.11282489       26 
Fe      2.80541735      -0.00055744      -0.03240786       1.03173020       0.26099499       0.23834280       26 
Fe      4.27444791       1.43661805       1.37266787      -0.84870417      -0.48196639       0.50476359       26 
Fe      2.85993161      -0.02204197       2.85609768       0.37882376       0.45437614      -0.55896450       26 
Fe      4.22845466       1.52660405       4.27458082      -0.20764126      -0.88551517      -0.41981152       26 
Fe      2.78700492       0.03410559       5.71612638       0.75049934      -0.00708827      -0.86361940       26 
Fe      4.30446392       1.35879623       6.97872875      -0.38567550       0.40154306       1.06492340       26 
Fe      2.76848667       2.80708104      -0.07490836       0.60435604       0.53293311       0.30239284       26 
Fe      4.24991647       4.24511908       1.37368706      -0.42016504       0.10289478       0.35145823       26 
Fe      2.80472326       2.81857634       2.66373847       0.32986559       0.45714933       1.54193785       26 
Fe      4.28246917       4.28579701       4.32884108      -1.06286112      -0.54337051      -0.40875063       26 
Fe      2.74913063       2.75539815       5.74983886       0.52830307       0.95916082      -0.25185858       26 
Fe      4.22339128       4.25154864       7.08647455      -0.10984807       0.21950407       0.20311380       26 
Fe      2.85608239       5.74100285       0.08739890      -0.20250780      -0.96979130      -1.13027622       26 
Fe      4.25641066       6.99736156       1.38416024       0.58062785       1.43702039       0.68374194       26 
Fe      2.93734818       5.71310617       2.88311689      -1.09070822      -0.94005958      -0.31120812       26 
Fe      4.25157692       7.07599184       4.24455699       0.32633932       0.59154475       0.15561319       26 
Fe      2.83152491       5.80615547       5.76155142       0.11008229      -1.37224710      -0.47184293       26 
Fe      4.26725702       7.10665056       7.05661017       0.40783995       0.14270059       0.48487045       26 
Fe      5.64704961       0.08042081       0.09823864       0.54593312      -1.00225096      -1.09906148       26 
Fe      7.02280272       1.48880061       1.49427790       1.03150369      -0.95809124      -0.86338954       26 
Fe      5.75836865       0.08526755       2.85778692      -1.04622300      -1.17063919      -0.07003016       26 
Fe      6.98579304       1.44037039       4.25067372       1.56144815      -0.09664751       0.14975364       26 
Fe      5.65701275      -0.03876628       5.55941257       0.36359769       0.28862329       0.84122226       26 
Fe      7.13368491       1.47794618       7.01919741      -0.92498906      -1.13250613       0.69046897       26 
Fe      5.59845328       2.79416843       0.05045919       0.30394578       0.38066262      -1.25869999       26 
Fe      6.95303497       4.14756204       1.40035311       1.15288470       0.92237913       0.33714258       26 
Fe      5.61204056       2.85901690       2.84697814      -0.08948467       0.07315714       0.23059093       26 
Fe      7.10752486       4.23458845       4.20337839       0.27188927      -0.21087391       0.39964996       26 
Fe      5.65640889       2.87524851       5.69185352       0.07396884      -0.08894680      -0.05550137       26 
Fe      7.00533406       4.32968675       7.11586933       0.61819912      -0.83581677      -0.43557341       26 
Fe      5.68750169       5.69515946       0.01039859      -0.37809280      -0.06132775      -0.13347188       26 
Fe      7.10715052       7.03890612       1.48351265      -0.52711265       0.00243278      -0.34107971       26 
Fe      5.63484555       5.65643799       2.91525826       0.61140884       0.09720930      -0.84458938       26 
Fe      7.21353318       6.99510748       4.30854988      -0.99372827       1.14899950      -1.37962154       26 
Fe      5.69637381       5.63681962       5.61336834      -0.27971108       0.47282072       0.69392325       26 
Fe      7.06472624       7.04662774       7.00641526       0.03566557       0.43201937       0.64134599       26 
54
Lattice="8.5008 0.0 0.0 0.0 8.5008 0.0 0.0 0.0 8.5008" Properties=species:S:1:pos:R:3:force:R:3:Z:I:1 config_type=phonons_54_high config_name=bcc_bulk_54_0002 ecutwfc=1224.51225528 pbc="T T T" kpoints="4 4 4" degauss=0.136056917253 energy=-186887.072193
Fe      0.07545694       0.01237044      -0.06476771      -0.94360924      -0.45106868       0.52642025       26 
Fe      1.40188543       1.37552587       1.44795453       0.09083013       0.34112805      -0.68981540       26 
Fe      0.09903361      -0.13934080       2.81658082      -1.08338135       0.91990830      -0.06389603       26 
Fe      1.34811085       1.40392643       4.24654422       0.82730488       0.30680048      -0.21473056       26 
Fe      0.08416736      -0.07380276       5.62871590      -1.24542950       0.46314386       0.38306274       26 
Fe      1.43329360       1.38828796       6.96875741      -0.41495830       0.53689673       1.00840901       26 
Fe     -0.00748715       2.84505997      -0.11926144      -0.14291502      -0.20836014       1.36693032       26 
Fe      1.39979671       4.17383999       1.36746398      -0.15926904       0.61848297       0.40996753       26 
Fe      0.01165438       2.78291972       2.79044303      -0.63427854       0.49242076       0.17860091       26 
Fe      1.34682725       4.27378756       4.38790354       1.13288614      -0.49575085      -0.91253155       26 
Fe     -0.04981974       2.80264568       5.72606417       0.98838500       0.75377853      -0.41512517       26 
Fe      1.40834500       4.34203074       7.20293899       0.30184622      -0.92310624      -1.81727317       26 
Fe     -0.04076553       5.63613287      -0.12943313      -0.09378047       0.38929381       1.28921744       26 
Fe      1.51523933       7.02785771       1.38611229      -1.08565112       0.28680064       0.19019555       26 
Fe      0.11712793       5.58460110       2.86636473      -0.65909046       0.29645230      -0.57336525       26 
Fe      1.44527831       7.12675832       4.28463134       0.45732700      -0.78537790      -0.38604445       26 
Fe      0.04386074       5.65816848       5.61994054      -0.15459040       0.45583113       1.37862292       26 
Fe      1.46216084       7.10618595       7.09053335      -0.55439385      -0.43454934      -0.15837301       26 
Fe      2.76296354       0.02975098      -0.07042600       0.88758311      -0.27747988       0.92767895       26 
Fe      4.32257008       1.44389017       1.33594675      -1.37399365      -0.35860461       0.69746931       26 
Fe      2.89245991       0.04013458       2.82708762      -0.47922534      -0.07779232       0.08956155       26 
Fe      4.24553419       1.37366691       4.20127205      -0.04367610       0.69649975       0.53960513       26 
Fe      2.79635969       0.01732423       5.66034509       1.06786217      -0.16235873      -0.46652075       26 
Fe      4.18712515       1.38128900       7.13153487       0.74857359       0.44642526      -0.87540276       26 
Fe      2.81649108       2.81401533      -0.07180210      -0.18374594       0.18002556       0.65018056       26 
Fe      4.14474537       4.26245838       1.45296756       0.38293804       0.03152969      -0.03022872       26 
Fe      2.75716940       2.89777199       2.83829882       0.32446216      -0.69503294       0.30041617       26 
Fe      4.19566638       4.25109745       4.27108346       0.50786254      -0.00330978       0.13425426       26 
Fe      2.80629734       2.84069077       5.68922253       0.08525804       0.10182211      -0.26552322       26 
Fe      4.26613969       4.30357430       7.03184190      -0.36585332      -0.42787218       0.69263050       26 
Fe      2.80437904       5.65634131       0.03981067       0.60657516       0.14145592      -0.24816159       26 
Fe      4.17199769       7.10025728       1.50644775       1.28087061       0.16459637      -1.27300329       26 
Fe      2.88025424       5.74170803       2.91101496      -1.01260094      -1.18594394      -0.34296330       26 
Fe      4.28415770       6.98662800       4.20468540       0.52574637       1.59535072       0.81960725       26 
Fe      2.90402214       5.74835983       5.75009929      -0.78240648      -0.77194594      -0.74216306       26 
Fe      4.20893382       7.08768822       7.08461846       0.81422414       0.45119903       0.36412399       26 
Fe      5.70480680      -0.01936918      -0.07508385      -0.57821435      -0.37649460       0.61250310       26 
Fe      6.95252969       1.38175023       1.30592744       2.01008508       0.47705199       0.60544311       26 
Fe      5.74105644       0.12134365       2.79706708      -0.10793877      -1.43451845       0.65510731       26 
Fe      7.17129026       1.53659281       4.36556103      -0.60731538      -1.24192200      -1.54035534       26 
Fe      5.76026980       0.10276062       5.64615414      -0.82004408      -0.98300369       0.03285998       26 
Fe      7.10312310       1.49484540       7.11311735      -0.42442176      -0.97212818      -0.20349021       26 
Fe      5.55495454       2.93458699       0.09644144       0.67045113      -0.63701600      -1.42551804       26 
Fe      6.99695584       4.27075107       1.41825200       1.35696755      -0.73482924       0.14063780       26 
Fe      5.64772243       2.82803485       2.84604252       0.10988792       0.42078159       0.35849071       26 
Fe      7.10214904       4.35179656       4.35381223      -0.38570789      -1.42009636      -1.15615694       26 
Fe      5.62030140       2.80340452       5.67117205      -0.29653406       0.39425527       0.02984125       26 
Fe      7.03035141       4.18055846       6.99286855       0.17881817       0.80810877       1.08239559       26 
Fe      5.68937868       5.59896491       0.05325988      -0.71519553       1.04187398      -0.53696100       26 
Fe      7.13251115       6.97073273       1.48256985       0.01718345       0.95981311      -0.81264753       26 
Fe      5.67253706       5.62783211       2.79304858      -0.16638508       0.15886949       0.81546624       26 
Fe      7.09637420       6.95120105       4.27695722       0.09715479       1.56193203      -0.60245728       26 
Fe      5.71593667       5.73601949       5.76081927      -0.90333137      -0.58795729      -0.84849154       26 
Fe      7.03431919       7.09259173       7.05847762       0.94685449       0.15399057       0.32149999       26 
54
Lattice="8.5008 0.0 0.0 0.0 8.5008 0.0 0.0 0.0 8.5008" Properties=species:S:1:pos:R:3:force:R:3:Z:I:1 config_type=phonons_54_high config_name=bcc_bulk_54_0003 ecutwfc=1224.51225528 pbc="T T T" kpoints="4 4 4" degauss=0.136056917253 energy=-186887.201941
Fe     -0.00479295      -0.10411274      -0.13438135       0.03927746       0.72184774       1.40666672       26 
Fe      1.31237362       1.41656934       1.45022350       1.00411784      -0.13054082      -0.76970034       26 
Fe      0.11313892      -0.04296834       2.79640838      -1.33008718       0.20461379       0.16767938       26 
Fe      1.40937636       1.29558967       4.24043665       0.20401960       1.53444771      -0.08582754       26 
Fe      0.03564442       0.01076676       5.63934843      -0.28405136      -0.30979350       0.28884107       26 
Fe      1.41409016       1.33730843       7.08886377       0.04770965       0.66617693      -0.34018960       26 
Fe     -0.03741999       2.69769673      -0.12503633       0.03486544       0.87966771       1.02685899       26 
Fe      1.44372203       4.26163166       1.41214089      -0.27688698      -0.10919295       0.00771202       26 
Fe      0.00922898       2.92704142       2.79167131      -0.36017632      -0.92227243       0.41206144       26 
Fe      1.35638786       4.41287482       4.21785372       0.77056655      -1.59992960       0.64684661       26 
Fe     -0.11979987       2.84730886       5.56267599       1.12652523      -0.29398944       0.58704841       26 
Fe      1.39844517       4.25770992       7.17115083       0.09476778      -0.35945153      -0.89576153       26 
Fe     -0.01361242       5.62419296       0.04305421      -0.26196713       0.39537704      -0.13517240       26 
Fe      1.34514120       7.00890192       1.47574316       0.68580396       0.25160121      -0.97748995       26 
Fe     -0.08993766       5.64058375       2.89591353       1.01493164       0.08645386      -0.92983790       26 
Fe      1.45613751       7.07452566       4.28737773       0.14383728       0.01133651      -0.54372686       26 
Fe      0.02073139       5.70081892       5.72291500      -0.49395416      -0.33482756      -0.11580660       26 
Fe      1.45087359       7.03511478       7.07067735      -0.18532074       0.74626602      -0.07281107       26 
Fe      2.87663259       0.01528961      -0.04397449      -0.29977263      -0.36191465       0.65807462       26 
Fe      4.22415466       1.48059943       1.48590785      -0.01788331      -0.71983560      -0.24626566       26 
Fe      2.81494562      -0.09952468       2.73938065       0.35616926       0.97722462       0.59782930       26 
Fe      4.31503423       1.37052189       4.25523448      -0.87352226       0.66870098      -0.01511269       26 
Fe      2.86717375       0.03857491       5.59233929       0.32486068      -0.49526619       0.68308631       26 
Fe      4.22115418       1.51899119       7.18904658       0.40788366      -1.20763917      -1.02207494       26 
Fe      2.86289290       2.83446024       0.08684654      -0.77097355       0.12719890      -0.16561684       26 
Fe      4.32032121       4.21623307       1.50421302      -1.17013628       0.56559384      -0.78550620       26 
Fe      2.77942444       2.82784046       2.88732052       0.17004222       0.05665503       0.14196809       26 
Fe      4.24933854       4.28305334       4.23716278      -0.30909339      -0.01562922       0.39890202       26 
Fe      2.82992939       2.81829654       5.78873264      -0.45044621       0.43374304      -1.20793484       26 
Fe      4.23844080       4.24928443       7.17549895      -0.13976928       0.16029465      -0.53479716       26 
Fe      2.79199712       5.75184025      -0.06575008       0.73396998      -0.66606715       0.99069103       26 
Fe      4.29013651       7.07201197       1.41385026      -0.43197926       0.53777296      -0.39141265       26 
Fe      2.91375671       5.67278964       2.79714813      -0.47163107       0.02755348       0.29142348       26 
Fe      4.38519143       7.14676190       4.11104341      -0.83844238      -0.68650330       1.16710752       26 
Fe      2.83646252       5.75359966       5.64133644       0.49020678      -0.76473940       0.13755967       26 
Fe      4.35825807       7.12031174       6.99381470      -1.44960414      -0.01709784       1.25886120       26 
Fe      5.70281079       0.07975913       0.03617053      -0.50639933      -0.73654031      -0.08072030       26 
Fe      7.08742056       1.35880475       1.45626429       0.40550076       0.61233366      -0.42778528       26 
Fe      5.67577479       0.07648715       2.83261992       0.15536379      -0.82798828      -0.52730497       26 
Fe      7.01648605       1.32402997       4.17447958       0.83844958       1.02593237       0.52077822       26 
Fe      5.69491801      -0.08336657       5.71871079       0.02095475       0.99364600      -1.04959191       26 
Fe      7.02091470       1.39593558       6.96308643       0.41809608       0.11296836       0.71672713       26 
Fe      5.69433106       2.75428194       0.03606312       0.07595939       0.92541123      -0.10755464       26 
Fe      7.05215688       4.24973138       1.37939799       0.53461359      -0.31990154       0.06169182       26 
Fe      5.63613957       2.94268856       2.81965363       0.60045311      -1.30700536       0.52736616       26 
Fe      7.01368639       4.21834893       4.26688691       0.26774105       0.71578482       0.05469842       26 
Fe      5.59996702       2.83679631       5.64873923       0.33838648       0.11047979       0.24884344       26 
Fe      7.11242310       4.29731571       7.10060707      -0.78202904      -0.49043972      -0.12361890       26 
Fe      5.54995161       5.63185872       0.10549484       1.24841018       0.40622838      -1.09796413       26 
Fe      7.04158382       7.09302279       1.45570219       0.79964752       0.30179660      -0.83993671       26 
Fe      5.80465355       5.74907293       2.78195623      -1.26596567      -0.69253151       1.00645960       26 
Fe      7.28039262       7.09605832       4.22649223      -1.95579829       0.08952607       0.62110807       26 
Fe      5.57649850       5.65729204       5.71962803       1.24361610      -0.02152990      -0.62922838       26 
Fe      7.03291803       7.11739221       7.14985859       0.32914182      -0.95600685      -0.50814279       26 
54
Lattice="8.5008 0.0 0.0 0.0 8.5008 0.0 0.0 0.0 8.5008" Properties=species:S:1:pos:R:3:force:R:3:Z:I:1 config_type=phonons_54_high config_name=bcc_bulk_54_0004 ecutwfc=1224.51225528 pbc="T T T" kpoints="4 4 4" degauss=0.136056917253 energy=-186886.518284
Fe     -0.06496402      -0.03585459       0.03220821       0.16597268       0.36551676      -0.39429563       26 
Fe      1.36175848       1.34973041       1.30627401       0.05765107       0.36020795       1.78531667       26 
Fe     -0.01604733       0.00678687       2.85193427       0.37089628       0.10060906      -0.64045125       26 
Fe      1.45958781       1.32938217       4.22510058      -0.35814618       1.10849100       0.25179301       26 
Fe      0.03394923      -0.09425968       5.61786455       0.23619927       1.39817025       0.69559935       26 
Fe      1.50086163       1.45210632       7.02290973      -1.23759020      -0.72526242       0.52045246       26 
Fe      0.03669820       2.77838157      -0.01585567      -0.46423144       0.18615635      -0.60168672       26 
Fe      1.37580660       4.12110615       1.48620711       0.21611896       1.49783366      -0.61435404       26 
Fe     -0.00856724       2.83826090       2.85597546       0.61755814      -0.32429272      -0.46143408       26 
Fe      1.35243584       4.38789680       4.27504933       1.36950708      -1.78259233      -0.14785077       26 
Fe     -0.08840349       2.81543442       5.59326401       1.05227075      -0.08514671       0.38199779       26 
Fe      1.47076864       4.27596445       7.15932168      -1.23465632      -0.35583373      -0.53724408       26 
Fe     -0.05807457       5.56375041       0.06035342       0.40715578       0.40421263      -0.81049681       26 
Fe      1.26746676       7.07111308       1.36204596       1.55219321      -0.16159435       0.59017744       26 
Fe      0.11160010       5.69610217       2.91844131      -1.02146842       0.00011519      -1.17298738       26 
Fe      1.52158474       7.10759635       4.21648492      -0.22202170      -0.23229171       0.03938724       26 
Fe      0.03595116       5.69214892       5.58842540      -0.59856772      -0.22896059       1.44323114       26 
Fe      1.40232493       7.12881571       7.12542161       0.21778349      -0.79083584      -0.04519048       26 
Fe      2.78663295       0.01075298       0.12212611       0.80137068      -0.31302872      -1.27206792       26 
Fe      4.24859929       1.52755078       1.51729728       0.36621764      -1.11968713      -0.51951324       26 
Fe      2.86796098       0.04248439       2.85007967      -0.19870616      -0.50230562      -0.85049752       26 
Fe      4.12865642       1.43755841       4.31791821       0.71162864       0.06140668      -0.72701360       26 
Fe      2.86160470      -0.07288209       5.72213223      -0.25131170       0.55636358      -0.37941769       26 
Fe      4.18111548       1.50424598       7.01461765       0.62446310      -1.17423848       1.27423254       26 
Fe      2.78865951       2.77039872       0.14513520       0.48934597       0.67759932      -1.26690026       26 
Fe      4.30575486       4.26977121       1.47103461      -0.23260359      -0.26704917      -0.82364466       26 
Fe      2.82654308       2.88510018       2.78543458      -0.48604699      -0.42864326       1.20290654       26 
Fe      4.20516791       4.17641137       4.28827508      -0.06836460       1.38936319      -0.14303715       26 
Fe      2.81991600       2.88264071       5.78570898      -0.85636580      -0.08028938      -1.54532528       26 
Fe      4.14123276       4.23370522       7.13909147       1.57460551       0.34858476       0.05540522       26 
Fe      2.85700458       5.61596813      -0.03586630      -0.17685359       0.91024969       0.65039962       26 
Fe      4.36674248       7.07778783       1.28934381      -1.08087273       0.53466578       1.38788815       26 
Fe      2.94126897       5.71049205       2.66922568      -0.98293787      -0.06211759       1.09039378       26 
Fe      4.23454303       7.09555620       4.18790336       0.31549724      -0.42901118       0.30329324       26 
Fe      2.82301716       5.63829521       5.67210130       0.37572713       0.67458444       0.07248660       26 