125
Lattice="11.3344 0.0 0.0 0.0 11.3344 0.0 0.0 0.0 11.3344" Properties=species:S:1:pos:R:3:force:R:3:Z:I:1 config_type=trivacancy_100_125_high config_name=trivacancy_100_125_high_0000 ecutwfc=1224.51225528 pbc="T T T" kpoints="3 3 3" timestamp=1474629183.95 degauss=0.136056917253 energy=-432599.674244
Fe     1.346972944      1.136533418      1.664700454     -0.749440050      0.678437238     -0.360721911       26 
Fe    -0.037294698      2.785973497      2.762142559     -0.218705488      0.458799211      0.175938530       26 
Fe     1.349043013      1.335479284      4.350612894      0.343572139     -0.188997934     -0.572216483       26 
Fe    -0.041312460     -0.133640374      5.732514593      0.417380282      1.017006267     -0.983213230       26 
Fe     1.526440745      1.518920382      7.175854318     -0.623971246     -0.616810724     -1.367048330       26 
Fe    -0.059710118      0.142701773      8.339745135      1.392216345     -1.069579155      1.234617493       26 
Fe     1.010142255      1.463049600     10.511671245     -0.626352088     -0.421639057     -0.847135798       26 
Fe     1.239103686      4.152159213      1.337100126      0.338742322     -0.133244334     -0.000796785       26 
Fe     1.307231999      4.326140961      4.240664702      0.343457468     -0.782591854     -0.266132570       26 
Fe    -0.012727749      2.767630845      5.564284294     -0.314986872      0.236470525      0.880808507       26 
Fe     1.568171581      4.180440887      7.058301220     -0.975153851      0.526926502     -0.227913379       26 
Fe     0.101011119      2.799310504      8.455999447     -0.977175252      0.302301306      0.536898011       26 
Fe     1.454903283      4.181599954      9.980615750     -0.392192213     -0.351466968     -0.207172805       26 
Fe    -0.028852033      5.578463572     -0.030165497      0.411446690      0.440769607      0.111861755       26 
Fe     1.428489507      7.097409309      1.228992143     -0.276977483     -0.271493320      0.823234823       26 
Fe    -0.053822022      5.623027350      2.724135720     -0.250157278     -0.213338824     -0.110950813       26 
Fe     1.181731787      6.938328138      4.138301073      1.332572666      1.067443083      0.619938985       26 
Fe    -0.073031404      5.633390675      5.781402354      0.245193506      0.295338759     -0.982073975       26 
Fe     1.448180046      7.205829623      6.971002311      0.420165558     -2.102236242      0.613321737       26 
Fe     0.144272234      5.542778551      8.505604369     -0.675326460      0.772580235      0.082828601       26 
Fe     1.505517160      7.075568827      9.913923721     -0.511471858     -0.220767255     -0.393516332       26 
Fe     0.019337336      8.548025548     -0.101334466      0.686989755      0.180098060      0.678238234       26 
Fe     1.253665262     10.136198480      1.482300557      0.303583258     -1.021338319     -0.675104831       26 
Fe    -0.029350349      8.430188808      2.656873877      0.342721618      0.118554079      0.955157353       26 
Fe     1.373394405      9.880168155      4.259155416     -0.129618307      0.475301065     -0.593118266       26 
Fe     0.081192127      8.507559360      5.696767222     -1.222227605     -0.456921277     -1.564791100       26 
Fe     1.398881436      9.903253461      7.034303552      0.908781338      1.008108194      0.363606432       26 
Fe     0.060206610      8.506465205      8.275068669     -0.087010758      0.250232097      2.909803020       26 
Fe     1.447792840      9.950543456      9.722742985     -0.720654751     -0.155576679      1.486825740       26 
Fe     2.851964256     -0.014802046      0.010429938     -0.240264959      0.286628633     -0.236465125       26 
Fe     4.148040632      1.454869405      1.510215212      0.760062820     -0.056777413     -0.709842234       26 
Fe     2.890315547     -0.012747482      2.961671035     -0.630600321     -0.642360290     -0.216098132       26 
Fe     4.223786171      1.400646394      4.118954646      0.407307729      0.255275316      1.933925146       26 
Fe     2.894826638      0.054962217      5.793027255     -0.407358637     -0.336434243     -0.978030658       26 
Fe     4.300408438      1.386846740      7.219245336     -0.103495899      0.435527128     -0.920459545       26 
Fe     2.681435533      0.101606730      8.628768822      1.222569304     -0.110507298     -0.597716941       26 
Fe     4.304174769      1.445469356      9.907642730     -0.013510633     -0.007497851      0.691672505       26 
Fe     2.711616603      2.719334389      0.105488547      0.989436071      0.444317987     -0.329508205       26 
Fe     4.206471107      4.176629094      1.490117575      0.092016438      0.640682645     -0.303116860       26 
Fe     2.618538986      2.825471184      2.815763973      0.915272088      0.283114706      0.551467938       26 
Fe     4.341547992      4.269094563      4.286583633     -0.945071430      0.567801128     -0.649358576       26 
Fe     2.903538587      2.909024300      5.561408802     -0.409980647     -0.879972899      0.576563961       26 
Fe     4.229298475      4.271615798      7.093034820     -0.021229598      0.080006044     -0.316328731       26 
Fe     2.884995678      2.780735701      8.614452545     -0.295536477      0.542265960     -0.148655783       26 
Fe     4.235055206      4.247225223      9.952036979      0.255970028      0.048716233     -0.282421537       26 
Fe     2.864445674      5.496557820      0.046852216     -0.182042586      1.149233987     -0.197797277       26 
Fe     4.213095191      7.232936192      1.466059268      0.267919230     -0.900489016     -0.835413110       26 
Fe     2.829880265      5.653927712      2.726159806     -0.289303094     -0.095448090      0.615233866       26 
Fe     4.163261235      7.148494867      4.260656941      1.149723525     -0.296593714     -0.498122948       26 
Fe     2.894336788      5.698220258      5.485562749     -0.988913366     -0.075919276      1.407233644       26 
Fe     4.269671937      7.053594667      7.127300332     -0.048565053      0.624064834     -0.417119572       26 
Fe     2.836393601      5.646668618      8.453292032      0.145403595      0.198155689      0.431462985       26 
Fe     4.201084864      7.077656771      9.978698027      0.590469773     -0.102278739     -0.305713931       26 
Fe     2.832695152      8.623174298     -0.089802066     -0.104159244     -0.274807986      0.673902326       26 
Fe     4.143930608     10.014545367      1.450559499      0.558563411     -0.929861041     -0.025282943       26 
Fe     2.687256586      8.361504044      2.873695769      0.269958371      1.433832991     -0.464007237       26 
Fe     4.297730834      9.832064157      4.187060789     -0.467405464      0.847260754      0.875507921       26 
Fe     2.809626067      8.531287768      5.653788163      0.580604450     -0.188964252     -0.296309093       26 
Fe     4.178173690      9.945772943      7.106181013      0.887851787     -0.122979205      0.126612431       26 
Fe     2.858996219      8.493027855      8.469940362      0.128701709      0.124289182      0.096018103       26 
Fe     4.380237479      9.921931464      9.884471181     -1.579850051      0.269352877      0.377644398       26 
Fe     5.629745498      0.004011936      0.043306135     -0.126157345      0.665262134     -0.138220961       26 
Fe     7.030542606      1.480116123      1.415965584     -0.282399940      0.183939031     -0.108590026       26 
Fe     5.718387068      0.042391563      2.776661143     -1.185697886      0.007075676      0.979222364       26 
Fe     7.102028327      1.383581798      4.188361275     -0.397253944      0.387938323      0.378525515       26 
Fe     5.728641073     -0.011728180      5.635834598     -1.033075919      0.275612999     -0.032905235       26 
Fe     7.251014821      1.238074772      7.032539614     -1.395872967      1.152233436      0.846846549       26 
Fe     5.696066813      0.010149627      8.520499731     -0.510616709     -0.027832706     -0.242049304       26 
Fe     7.112484877      1.305479723      9.814788026     -0.660184719      0.991410421      0.937643770       26 
Fe     5.612872328      2.960406796      0.013813630      0.293182632     -1.373374787     -0.279784099       26 
Fe     6.977010813      4.312299459      1.349589252      1.076622435     -0.569411410      0.537423801       26 
Fe     5.591517049      2.925044250      3.005545682      1.267452794     -0.562636553     -1.566133216       26 
Fe     7.155093709      4.340293330      4.381712436     -0.565729076     -0.251916170     -0.790871320       26 
Fe     5.612990228      2.823570065      5.789572099      0.759797739     -0.326769723     -0.829061972       26 
Fe     7.206598708      4.241002071      7.137729159     -0.236368452      0.517318546     -0.738687697       26 
Fe     5.739944191      3.033420372      8.374331604     -0.538644047     -2.590041609      1.194040344       26 
Fe     7.194515058      4.129130115      9.789568646     -0.715106567      1.612619017      1.314794516       26 
Fe     5.677282856      5.742748004     -0.012727794     -0.303599456     -0.354304438     -0.067940629       26 
Fe     7.138419288      7.168127600      1.379766571      0.185095256      0.066832740      0.293049449       26 
Fe     5.792107185      5.737669705      2.705503122     -1.135678360      0.063981644      1.435002072       26 
Fe     7.077094641      7.128124865      4.310162324      0.291488018     -0.449342694     -0.487622305       26 
Fe     5.577560277      5.718881588      5.680841710      1.319077717      0.117367258      0.245955067       26 
Fe     7.153018879      7.105792107      7.221309059     -0.442579664      0.405858912     -0.666096714       26 
Fe     5.702021283      5.572463991      8.442925307      0.090448837      1.391607507      0.991145084       26 
Fe     7.216547987      7.055574628     10.014784931     -1.195781495      0.585309311     -0.851950960       26 
Fe     5.778478827      8.594302101      0.062037558     -1.256432018     -0.820430007     -0.078265922       26 
Fe     7.007236393      9.999487685      1.526583910      0.603962408     -1.002367435     -1.132006568       26 
Fe     5.661596533      8.559539089      2.830658088      0.123945939     -0.653447144      0.062915922       26 
Fe     7.090435672      9.847216629      4.284849356      0.289360173      0.579701478     -0.406026548       26 
Fe     5.813627277      8.574584099      5.708116334     -1.469131666     -1.021383313      0.373389479       26 
Fe     6.981145885     10.001148741      7.121456837      1.360245963     -1.258956327     -0.045714985       26 
Fe     5.648986571      8.443012888      8.603788280      0.256378833     -0.040438053     -0.850489288       26 
Fe     6.980889388      9.882912180      9.933070413      1.036711202      0.772367605      0.307774156       26 
Fe     8.333608464     -0.026339083      0.084194383      0.832055764      0.133921048     -0.736221495       26 
Fe    10.117790621      1.266445489      1.061487755      0.082830144      0.817082688      0.428902424       26 
Fe     8.375017267     -0.038007666      2.795736745      0.507335210      0.681043565      0.352256811       26 
Fe    10.039155784      1.235187345      3.894815163     -0.237057250     -0.319264416      1.047615507       26 
Fe     8.491337612     -0.040851365      5.574258713      0.894369019     -0.531950951     -0.060099278       26 
Fe     9.962253898      1.312321711      7.014378663     -0.866049090      1.459598272     -0.369612529       26 
Fe     8.575153630     -0.119586795      8.564116486     -0.588130326      0.414987614     -0.657828046       26 
Fe     9.830391494      1.332194711      9.863892172      0.732337843      0.620841185      0.671514800       26 
Fe     8.404701165      2.790880204     -0.026243772      0.256186001     -0.239595701      0.407942020       26 
Fe     9.748110324      4.250810827      1.439862398      1.296520915     -0.735812689     -1.045301257       26 
Fe     8.525955193      2.787559202      2.774109622     -0.521849344     -0.049007539      0.155560223       26 
Fe     9.839642564      4.160009339      4.254971526      0.260822471      0.343734633      0.190064942       26 
Fe     8.343755167      2.699289196      5.665244272      1.906380404      0.748260428     -0.167920287       26 
Fe     9.910928901      4.282019666      7.096505822      0.252762834     -1.049982465      0.365529360       26 
Fe     8.517928874      2.747414639      8.541234203      0.691343661      0.105878541     -1.113827840       26 
Fe     9.863215951      4.195610145     10.076892638      1.101049715     -0.680322113     -0.922010178       26 
Fe     8.477368848      5.713779601     -0.017673673      0.304023174     -0.616070503      0.318023345       26 
Fe     9.943635015      7.122920074      1.289238106     -0.323893173      0.024580774      0.442034847       26 
Fe     8.593721361      5.641471569      2.750880087     -1.902653590      0.285050233      0.446708598       26 
Fe     9.780397349      7.040130726      4.050034058      1.589735171      0.092159392      1.503394957       26 
Fe     8.519054425      5.756791631      5.850433259      0.062853444     -0.289692616     -1.353777839       26 
Fe     9.956122849      7.202238761      7.168753395     -0.030169067     -0.994284658     -0.468543177       26 
Fe     8.672689871      5.829613179      8.549877816     -0.757395814     -1.362147551      0.223799871       26 
Fe    10.062737683      7.061082195     10.019885559     -0.359816112      0.615007095     -1.505019123       26 
Fe     8.618205161      8.688125998     -0.057747079     -0.132816759     -0.225507855      0.865111151       26 
Fe    10.034772160     10.225350291      1.670597516      0.230505051     -0.523296618     -1.501157069       26 
Fe     8.527930281      8.558911208      2.807619753     -0.503788887     -0.455930631     -0.579701221       26 
Fe     9.958554474      9.818118198      4.115175972      0.271126424      0.730956904      0.834145557       26 
Fe     8.692612935      8.469097615      5.627613384     -1.558095176      0.433166598      0.541006376       26 
Fe     9.936764385      9.907455293      7.091192096     -0.644348781     -0.111532397     -0.098620317       26 
Fe     8.437030297      8.624536749      8.672270215      1.163648877     -0.763355117     -1.072249503       26 
Fe    10.183542484     10.088544763      9.963649480     -0.743226465     -0.064297118      0.322318887       26 
125
Lattice="11.3344 0.0 0.0 0.0 11.3344 0.0 0.0 0.0 11.3344" Properties=species:S:1:pos:R:3:force:R:3:Z:I:1 config_type=trivacancy_100_125_high config_name=trivacancy_100_125_high_0001 ecutwfc=1224.51225528 pbc="T T T" kpoints="3 3 3" timestamp=1474629183.95 degauss=0.136056917253 energy=-432598.256859
Fe     1.128901366      1.243033742      1.064247648      0.151135869      0.743748656      1.044596004       26 
Fe    -0.054906713      2.835206583      2.763597261      0.597777105      0.680505947     -0.333604229       26 
Fe     1.297721496      1.473923835      4.157535867      1.017420729     -1.175170504     -0.105880341       26 
Fe    -0.043296819     -0.041811128      5.808165921      0.763298296     -0.380740263     -1.282573709       26 
Fe     1.346755188      1.438949639      7.115205281      0.664111822     -0.517783916      0.060707087       26 
Fe    -0.197597594     -0.063582244      8.434144660      1.228668218      0.653357412     -0.076244520       26 
Fe     1.225531955      1.441334760      9.926755588      0.762072137      0.232066996     -0.209942911       26 
Fe     1.518275364      4.225771652      1.377923269     -1.301046313      0.818306019      0.250263979       26 
Fe     1.370361025      4.296277593      4.244371720      0.588099473      0.059074951     -0.571239721       26 
Fe     0.124831074      2.844841311      5.591292526     -1.990458562     -0.275272585      0.584161828       26 
Fe     1.436110270      4.196532369      6.999816963     -0.340503528      1.467716788      0.600338952       26 
Fe     0.096210502      2.966534275      8.523884772     -1.421365969     -0.626757294     -0.715350822       26 
Fe     1.380091335      4.316914929      9.922002032      0.098887197     -0.098582007      0.853861290       26 
Fe    -0.042907040      5.858815309      0.143937937      1.122552107     -1.198589911     -0.623594580       26 
Fe     1.600107874      7.158134740      1.464656070     -1.727870515     -0.809885656     -0.236477981       26 
Fe    -0.044085103      5.758885752      2.963291254      0.734519682     -1.724209007     -0.920495541       26 
Fe     1.633299871      7.069906592      4.140800863     -1.712352879      0.240613600      1.615380639       26 
Fe    -0.181221721      5.778183033      5.604759958      1.768273086     -0.955668489      0.785395127       26 
Fe     1.385985767      7.047918762      7.152245749      0.352120800      0.330772674     -0.992323677       26 
Fe     0.106098655      5.780006398      8.579161859     -1.019361912     -0.788535216     -0.788482765       26 
Fe     1.438406449      7.135509487      9.923864693     -0.481350356      0.400515388      0.363423112       26 
Fe    -0.028139609      8.504167405     -0.004852347      0.555958112      0.010183111      0.133675765       26 
Fe     1.113673940     10.026440480      1.485813643      1.792751016      0.169300970      0.146460575       26 
Fe    -0.061481889      8.286887093      2.872987788      1.244307210      1.712705634      0.759316429       26 
Fe     1.435000632      9.828820807      4.333840271     -0.793125663      1.110578223     -0.553642834       26 
Fe    -0.070739781      8.456563163      5.807864710      0.335828234     -0.334017149     -1.534289847       26 
Fe     1.416059195      9.837272291      7.093986377      0.023298565      1.129063169     -0.081870608       26 
Fe    -0.075549523      8.607280545      8.399017938      0.053863068     -0.800425025      1.471522020       26 
Fe     1.302623386     10.141377485     10.092537680     -0.105902452     -0.533402853     -0.690838439       26 
Fe     2.821408776      0.142041171     -0.035432082      0.114806953     -1.697339179     -0.145419536       26 
Fe     4.105509134      1.319493292      1.344917496      1.379571659      1.214283153      0.499538083       26 
Fe     2.895954105     -0.019968901      2.905950263     -1.031701921     -0.046741883     -0.704476342       26 
Fe     4.099851195      1.450351252      4.236159131      1.272612998     -0.169325395      0.042318815       26 
Fe     3.018869257      0.033736853      5.621962279     -1.803421866     -0.706400812      0.510887189       26 
Fe     4.236231048      1.402226999      7.093038141      0.576700487      0.080934727     -0.358068533       26 
Fe     2.976261933     -0.047990768      8.304199346     -1.796175211      0.395062593      1.978146063       26 
Fe     4.274056729      1.365767669      9.981349959     -0.219339265      0.943528511     -0.872363462       26 
Fe     2.830812191      3.008165481     -0.003732497      0.222696354     -1.494778934     -0.707638798       26 
Fe     4.326432323      4.351690568      1.315831827     -0.496752292     -0.109390668      1.026525777       26 
Fe     2.892935403      2.812196493      2.702769752     -1.126991631      0.426126147      0.447038728       26 
Fe     4.298247104      4.283932142      4.224780096     -0.692870382     -0.202039083      0.300212285       26 
Fe     2.732030356      2.841263347      5.678855662      1.062724337     -0.299477464     -0.665561410       26 
Fe     4.329517954      4.176211104      6.938607463     -0.862319705      0.234472520      1.077121744       26 
Fe     2.880147785      2.934310360      8.506175033     -0.325328363     -1.151778094     -0.048553226       26 
Fe     4.222114767      4.327247538      9.845981950      0.641854040     -0.742666736      0.384080640       26 
Fe     2.921828296      5.818951623     -0.137348582     -0.877558376     -1.188634600      1.389663496       26 
Fe     4.253587335      7.028090284      1.497964822      0.763175140      1.294357589     -0.646487425       26 
Fe     2.916359776      5.703634508      2.866884690     -0.150835564     -0.836120678     -0.449082755       26 
Fe     4.380303740      7.149543027      4.226963827     -1.345849842      0.312904021      0.479797667       26 
Fe     2.875046943      5.709784248      5.660748335     -0.208289178     -0.149384691      0.003668707       26 
Fe     4.238193871      7.209158435      7.039850472     -0.106831649     -1.316756268      0.657100681       26 
Fe     2.819262970      5.613130922      8.475574669      0.340146658      0.736059001     -0.652867617       26 
Fe     4.232348483      7.056051614      9.851233586      0.556350206      0.869848409      0.020881728       26 
Fe     2.754991844      8.546878496      0.109307979      0.845524231      0.668763205     -0.971325478       26 
Fe     4.265373014      9.919701556      1.466124895      0.168816831      0.181919173     -0.650523285       26 
Fe     2.782575943      8.584041568      2.834879246      1.191367939      0.214676826      0.248592762       26 
Fe     4.473572919      9.979233781      4.290508271     -1.629064050     -0.574786044     -0.281814499       26 
Fe     2.802331360      8.553015835      5.645555433      0.802327898     -0.600750328      0.270656426       26 
Fe     4.269697655      9.810343650      7.160368433     -0.019587692      0.480118541     -0.924526259       26 
Fe     2.712044953      8.507637295      8.579534138      0.842408054      0.180516893     -0.355441380       26 
Fe     4.262703299      9.873439387      9.900503837     -0.614101038      0.006080916      1.041164609       26 
Fe     5.786956697     -0.007649915     -0.107115384     -0.867742161      0.115266410      1.226529574       26 
Fe     7.169584332      1.550380846      1.433282133     -0.901999796     -0.792709916     -0.723802810       26 
Fe     5.653705195      0.118127740      2.798411324      0.166158311     -0.766698580     -0.309721253       26 
Fe     6.983381414      1.288409414      4.277615629      0.727848697      1.424134533     -0.523940165       26 
Fe     5.829284878     -0.176759696      5.760148065     -2.015628119      1.738479914     -0.313630615       26 
Fe     7.104591261      1.276889050      7.062559260     -0.301185704      1.281904451     -0.104030946       26 
Fe     5.612685741     -0.097308454      8.555807419      0.468942727      0.567589526     -0.414289816       26 
Fe     7.089466955      1.409407387      9.879354277      0.309281337      0.062854215      0.439918572       26 
Fe     5.650425360      2.920796956      0.080171657      0.118790878     -0.833858622     -0.760063848       26 
Fe     7.121281619      4.352022984      1.413814712     -0.036533833     -0.654340602      0.493745902       26 
Fe     5.534225511      2.834053195      2.911095163      1.295017077      0.095934028     -1.048170094       26 
Fe     7.176553661      4.114045740      4.374256656     -1.361739774      0.425989107     -0.747046353       26 
Fe     5.612410156      2.684166488      5.616754394      0.529903839      0.517803456      0.423500536       26 
Fe     7.038137810      4.152110214      7.080676856      0.553668802     -0.074213863     -0.078821280       26 
Fe     5.723827127      2.702782436      8.475682890     -0.739689913      0.546094847      0.042939993       26 
Fe     6.948300392      4.227293012      9.880319560      1.179631111     -0.028171834      0.295442374       26 
Fe     5.703961902      5.769843420     -0.026314170      0.053031573     -0.539095018     -0.148007865       26 
Fe     7.195108686      6.991503328      1.402718946     -0.021997073      0.875090888      0.557187100       26 
Fe     5.723157468      5.743292134      2.926987499      0.220899153     -0.958617544     -0.728943730       26 
Fe     6.959356759      7.192700648      4.332586154      1.227884289     -1.396697520     -0.197931232       26 
Fe     5.564835747      5.681968542      5.684673451      1.357874891     -0.011089682      0.136380051       26 
Fe     7.128633994      7.142668725      7.115881094     -1.749722834     -1.494393011     -0.086378780       26 
Fe     5.668929663      5.532390777      8.428867761     -0.159214275      1.530048041     -0.026349950       26 
Fe     7.127935784      7.172230540      9.901587020     -0.476158785     -1.236105905      0.785650695       26 
Fe     5.752943625      8.430794779      0.046942052     -0.820599186      0.431334944      0.195255227       26 
Fe     7.125634413     10.005722614      1.329444226      0.209045596     -0.771056600      1.017364679       26 
Fe     5.744501254      8.574133330      2.866671807     -0.320130878     -0.158349870     -0.915019862       26 
Fe     7.136727980      9.951037613      4.296030164     -0.577123433     -0.580088687     -1.154282348       26 
Fe     5.728332596      8.504004949      5.734196324     -0.764596960      0.131035499     -0.052127059       26 
Fe     7.083732383      9.901094926      7.118543602     -0.074130817     -0.772347808      0.136958549       26 
Fe     5.635034356      8.498705505      8.548478199      0.099411702     -0.544780756     -0.189166598       26 
Fe     7.086140252      9.780460889      9.983581929      0.516744676      0.729541255     -0.300167548       26 
Fe     8.625925531     -0.124550786     -0.079594113     -1.303115023      1.294765880      0.905960838       26 
Fe     9.980533644      1.312097437      1.302720431      0.009199150      0.400285275     -0.177887426       26 
Fe     8.450043106      0.084391477      2.782022099      0.061746070     -1.106020686     -0.217099062       26 
Fe    10.110476827      1.179347471      4.017743634     -0.481655289      0.688768958      0.676855238       26 
Fe     8.450768802     -0.066574423      5.468153700      1.456096430      0.328897568      1.611234478       26 
Fe     9.867233927      1.302230083      7.011045454      0.060833071      0.855018543      0.440996893       26 
Fe     8.278094636     -0.033985870      8.450836503      2.246112344     -0.365153979      0.674009798       26 
Fe     9.997843064      1.411607938      9.976307307      0.231300808      0.141561081     -0.107040936       26 
Fe     8.499005198      2.850995550     -0.127824059     -0.013114683      0.123877548      0.637470309       26 
Fe     9.802885150      4.233922174      1.403012439      1.286734268      0.083089311      0.157713008       26 
Fe     8.562976937      2.760210474      2.809614290     -0.439268854      0.429995914      0.343034264       26 
Fe     9.855709529      4.146356408      4.286307889      0.768883760      0.314234567      0.000851549       26 
Fe     8.564209881      2.692913710      5.619320468     -0.270777525      0.114282448      0.450863501       26 
Fe     9.905246490      4.398899115      7.082752377      0.274785875     -1.554589477      0.266807228       26 
Fe     8.613524586      2.801995884      8.485764148     -0.527213437      0.236142709     -0.136452299       26 
Fe     9.995058077      4.414561601      9.936259913      0.488099502     -1.629502680     -0.185817479       26 
Fe     8.621737980      5.621637956     -0.113323417     -1.218888256      0.945086085      1.236376128       26 
Fe    10.001600825      7.057954614      1.573689767     -1.508536135     -0.176123649     -0.555650866       26 
Fe     8.505316418      5.682784131      3.133253778     -0.778275486     -0.569722770     -2.227893250       26 
Fe     9.825040989      7.042068852      4.294731117      0.083389359      1.184435731      0.789331229       26 
Fe     8.382196589      5.625510705      5.762581288      0.142233939      0.136476982     -0.377566750       26 
Fe     9.768568327      6.985879663      7.137421113      0.821161743      0.971286140     -0.123239400       26 
Fe     8.453905473      5.682080514      8.644013250     -0.151950652     -0.557211268     -1.337994094       26 
Fe     9.963381625      7.106782382      9.874602251     -0.064347255      0.615977172      0.082591546       26 
Fe     8.828470726      8.445078208      0.152626922     -2.119645695      0.699546508     -0.670357032       26 
Fe    10.161529731     10.020984349      1.604976123     -1.553604745      0.323065792     -0.582603740       26 
Fe     8.400502268      8.520104580      2.969045581      0.968246582     -0.101832910     -1.371291936       26 
Fe    10.005046075      9.923038528      4.138525528     -0.222504550     -0.273857192      0.759364251       26 
Fe     8.379030630      8.441098814      5.650766752      1.172429965      0.403337688      0.172549559       26 
Fe     9.768532839      9.794340996      6.985258346      0.006927580      0.978269513      0.606056314       26 
Fe     8.345614904      8.402501679      8.466298721      2.004766751      1.357492311      0.696903414       26 
Fe     9.899882179     10.061808081      9.897253902      0.288338931     -1.645114418     -0.262550252       26 
125
Lattice="11.3344 0.0 0.0 0.0 11.3344 0.0 0.0 0.0 11.3344" Properties=species:S:1:pos:R:3:force:R:3:Z:I:1 config_type=trivacancy_100_125_high config_name=trivacancy_100_125_high_0002 ecutwfc=1224.51225528 pbc="T T T" kpoints="3 3 3" timestamp=1474629183.96 degauss=0.136056917253 energy=-432599.881002
Fe     1.499416442      1.826735337      1.312239038     -1.212425274     -1.723573687     -0.295063137       26 
Fe     0.144871892      2.817117175      2.929759859     -1.132597407      0.623414860     -0.788221541       26 
Fe     1.382851987      1.304862803      4.049897876      0.393392919      0.010665964      0.807114007       26 
Fe     0.057350080     -0.114740341      5.655045431     -0.491686448      1.038118109      0.218007433       26 
Fe     1.375690732      1.321464423      7.102954778      0.079666144      0.421558839     -1.437815630       26 