125
Lattice="11.3344 0.0 0.0 0.0 11.3344 0.0 0.0 0.0 11.3344" Properties=species:S:1:pos:R:3:force:R:3:Z:I:1 config_type=trivacancy_110_125_high config_name=trivacancy_110_125_high_0000 ecutwfc=1224.51225528 pbc="T T T" kpoints="3 3 3" timestamp=1474629170.02 degauss=0.136056917253 energy=-432597.336601
Fe     0.090753759      0.038999358      2.864796315     -0.134952318      0.349724018      0.008901416       26
Fe     1.318024716      1.485489502      4.287454590      0.429671441      0.009046426     -0.601410331       26
Fe     0.127147350     -0.023238535      5.540672177     -2.173817809      1.459802418      1.717768136       26
Fe     1.317302998      1.428034635      7.058820925      0.880955317     -0.874386920     -1.199567959       26
Fe    -0.037257533      0.034787132      8.389493200     -0.250599765     -0.877098148      0.048407701       26
Fe     1.334378295      1.275043924      9.873790799     -1.015737685      0.322175162      1.035778920       26
Fe    -0.101361737      2.952941280      0.186913788      1.155649403     -1.530160141     -0.843446522       26
Fe     1.377231020      4.497420043      1.519271737      0.762546505     -2.120577463      0.124593343       26
Fe     1.409630391      4.123546597      4.249904471      0.034440441      0.815165930     -0.166873077       26
Fe    -0.087576375      2.920442903      5.618642320      0.481543703     -0.964971511     -0.070280847       26
Fe     1.337558013      4.180848483      7.166725286     -0.060640496     -0.622183044     -1.733988454       26
Fe     0.043055328      2.717826585      8.353994607     -1.398515804      1.150769964      1.548477451       26
Fe     1.259393781      4.196447417     10.053959531      0.443926408     -0.108670502     -0.428031591       26
Fe     0.008932267      5.671755839      0.186158929     -0.636016093      0.799223548     -1.235224531       26
Fe     1.337841487      7.106800007      1.630921641      2.058737548     -0.773182902     -0.963320091       26
Fe    -0.080238042      5.576473784      2.954787178      0.790529878      1.595744610      0.204781679       26
Fe     1.481735888      7.019914588      4.461208789     -0.269657552      0.016214405     -1.214782204       26
Fe     0.021458388      5.645257123      5.790964077     -0.451886800      0.133074898     -1.265363002       26
Fe     1.308743668      7.054911180      7.098154535      0.849608685      0.403969151      0.860975532       26
Fe    -0.055839454      5.596849907      8.685845222     -0.372513761      0.666381849     -0.582490097       26
Fe     1.440552811      7.180922189     10.154552965     -0.230932626     -1.666866722     -1.114572946       26
Fe     0.222117335      8.593106107      0.221883348     -1.872118398     -0.654714955     -1.068393363       26
Fe     1.445477052     10.118001509      1.431027596      0.140563493     -0.909605376      0.188666519       26
Fe     0.126751326      8.342242557      2.910528726     -0.908989340      1.924463744      0.912439246       26
Fe     1.372658021     10.067132291      4.349315535      1.789651551     -1.764704909     -1.907277205       26
Fe    -0.005091356      8.569330469      5.766173352     -0.068959300     -0.998013786     -0.631419732       26
Fe     1.405792507      9.977841939      6.994687286      0.424175194     -0.533156799      0.643973143       26
Fe    -0.007934250      8.462812101      8.604254158     -0.759592051     -0.434453435     -1.071701344       26
Fe     1.390518496      9.812265431      9.766081367     -0.587439470      1.513824894      1.593249869       26
Fe     2.775888930     -0.072007330     -0.118288802      0.616452569      0.711930484      0.724456384       26
Fe     4.200551093      1.409655134      1.322411322      0.453925428     -0.365971332     -0.235173146       26
Fe     2.858890832      0.082894860      2.749735720     -0.002127331     -0.435868313      0.295375011       26
Fe     4.398984588      1.360282953      4.121264404     -1.148901029      0.491707788      0.641914975       26
Fe     2.948733781      0.084076811      5.542942435     -0.560078819     -0.463293242      0.643025949       26
Fe     4.256160992      1.455428859      7.039681295     -0.607466050     -0.995595663      0.208040038       26
Fe     2.681063005     -0.059267691      8.547281400      1.376623118      0.278770827     -1.484140737       26
Fe     4.211197042      1.408095816      9.923286684     -0.185997714     -0.690670803     -0.002367986       26
Fe     2.691845295      2.787918854     -0.069272520     -0.034476179     -0.388644605      1.416722814       26
Fe     4.281843926      4.220651416      1.508399282     -0.691803374     -0.202741508     -0.723719506       26
Fe     2.750690485      2.634094192      2.763928112      0.047189255      1.259192611     -0.253031771       26
Fe     4.286773121      4.193187678      4.306032942     -0.346425292      0.146376500     -0.186838721       26
Fe     2.802690343      2.742530658      5.605519000      0.367508852      0.760237912      0.478900609       26
Fe     4.275257903      4.192365979      7.085408322     -0.565467594     -0.372057905      0.410099175       26
Fe     2.663492905      2.576904459      8.519604846      1.012750320      1.911704131     -0.233818946       26
Fe     4.091318001      4.092083402      9.937162200      0.455991052      0.550289859     -0.084442226       26
Fe     3.000399875      5.587128131      0.043198765     -1.663724577      0.756382543      0.083776310       26
Fe     4.094487088      7.255473173      1.417130998      1.706532673     -1.089534772     -0.113989857       26
Fe     2.948641984      5.603031076      2.929511137     -0.906053397      0.437903084     -0.024440906       26
Fe     4.297018059      7.053232737      4.221914681      0.713736427      0.128885543      0.129089945       26
Fe     2.959183463      5.696115006      5.824347183     -0.630885714     -0.464735117     -0.695266136       26
Fe     4.449921461      7.125387822      7.119061380     -1.956866842     -0.276223121      0.220463094       26
Fe     2.580495798      5.376525334      8.386181141      2.083081009      2.308843404      1.962094152       26
Fe     4.146670654      7.101133544      9.900864758      0.542982012     -0.276615215      0.019132607       26
Fe     2.798559725      8.648974214      0.012933185      0.652877644     -0.512375086      0.286032394       26
Fe     4.427066153      9.943900251      1.294686960     -0.612756609      0.300472738      0.182476845       26
Fe     2.907544209      8.532927051      2.932918235     -0.735096894      0.532522765     -0.487637989       26
Fe     4.399514539      9.876850735      4.223116830     -0.459771088      0.505578118     -0.732954908       26
Fe     2.919918869      8.528564372      5.577782646     -0.653467970     -0.510412049      0.935568890       26
Fe     4.173193434      9.849331345      6.948114610      0.762984621      0.897066878      0.987679494       26
Fe     2.745965468      8.532196753      8.567931611      0.772765355     -0.955531192     -1.550902772       26
Fe     4.245938712      9.956159538      9.795228558      0.391225222     -0.392767112      0.632201862       26
Fe     5.781844872      0.069277814     -0.159098570     -0.341002322     -0.489787431      0.605572175       26
Fe     7.027506290      1.494749786      1.378181795      1.175469266     -0.386610349     -0.046404040       26
Fe     5.770621220      0.058555857      2.726176479     -0.204682177     -0.629765741      0.207720192       26
Fe     7.076675303      1.534837530      4.317445492     -0.147346063     -1.157084336     -1.306339186       26
Fe     5.682455921     -0.046500600      5.639008842      0.095197921      0.373682842     -0.190520027       26
Fe     6.927490966      1.259969398      7.167048815      1.456461270      1.334790499     -1.430013103       26
Fe     5.649232720     -0.007901539      8.454377732     -0.499490260     -0.996971718      0.152532750       26
Fe     7.101985630      1.440233033      9.722210857      0.598250445     -0.557641671      1.872459327       26
Fe     5.650424068      2.825885524      0.036112067     -0.832904742     -0.426616713     -0.011512886       26
Fe     7.040840554      4.362058745      1.440877451      0.587261036     -1.413566271     -0.397049799       26
Fe     5.635121971      2.817608091      2.766356530      0.301286749      0.192964889      0.579564439       26
Fe     7.007524990      4.263736633      4.291143462      0.750026262     -0.234900095     -0.190785879       26
Fe     5.652859343      2.842426517      5.658384240     -0.059206591     -0.400404317      0.289411595       26
Fe     7.067041584      4.077656785      7.094731081      0.003301554      1.120856208      0.494123082       26
Fe     5.557049433      2.713886759      8.577428614      0.286761302      1.125302416     -0.844413771       26
Fe     6.882120882      4.152589931     10.110586272      1.690597233      0.474162580     -2.011369858       26
Fe     5.712606286      5.642904430      0.076266639     -1.782037230      0.461126059     -0.602249796       26
Fe     7.070478605      7.087028744      1.208358321      0.302158610      0.701631930      1.884481291       26
Fe     5.757943082      5.562493878      2.841567596     -1.323679734      1.711704447      0.055120851       26
Fe     7.134285224      7.181169142      4.030357291     -0.706861297     -0.749116605      1.474931046       26
Fe     5.756777373      5.708766566      5.726377854     -0.504075823     -0.403842396     -0.303248500       26
Fe     7.014562315      7.110870201      7.196339557      1.129251888     -0.424181878     -0.634955513       26
Fe     5.505435704      5.548054589      8.665317773      0.663089809      0.088285768     -1.165697532       26
Fe     7.094481883      6.886633741      9.827590061     -0.378955403      1.841429969      0.600444624       26
Fe     5.806344053      8.469695006     -0.212742086     -0.845197958      0.536169360      0.840482297       26
Fe     7.286510172     10.005780204      1.357451007     -1.118767701     -0.480065062      0.180907444       26
Fe     5.830706189      8.562419511      2.679978428     -1.034497482     -0.328439655      0.099846476       26
Fe     7.085122593      9.934022287      4.181989075      0.667978761      0.743477148     -0.405394057       26
Fe     5.772243853      8.469977947      5.591432789     -0.511694772      0.128840291      0.018015977       26
Fe     7.128407987      9.900616410      6.943109214     -0.494291490      0.919563516      0.992103591       26
Fe     5.699025068      8.602212753      8.420717817     -0.143911327     -0.411116047      0.809015595       26
Fe     7.282146031      9.900490020      9.906293109     -0.995059331      0.930746786     -0.062382932       26
Fe     8.610959895      0.032153177      0.104628810      0.150777972      0.903855361     -1.405544172       26
Fe     9.866285816      1.475520557      1.690420837      0.801617245      0.633758150     -1.477409332       26
Fe     8.607985034      0.029880788      2.825444276     -1.088642857     -0.280136340      0.481395094       26
Fe     9.881359820      1.463861574      4.209846310      0.916826834      0.589778403     -0.245523893       26
Fe     8.567480309      0.171106505      5.562559006     -0.826081806     -1.802629966      0.345824940       26
Fe     9.850343881      1.479818663      6.989287351      0.992274312     -0.870432306      0.059118145       26
Fe     8.589898755     -0.025748991      8.381661730     -0.387582997      0.149539728      0.803762831       26
Fe     9.971277248      1.498752869      9.798334966     -0.117439763     -0.966448095      1.172374944       26
Fe     8.490182920      2.879293693     -0.000542204     -0.281344759     -0.857604559      0.474404264       26
Fe     9.989598931      4.242402969      1.464568239     -1.352646039      0.515979259      0.645777543       26
Fe     8.399819144      2.971847422      2.790985184      0.165427603     -0.714252447      0.662035399       26
Fe     9.952030654      4.278417877      4.157873654     -0.900109007     -0.661357657      0.944769840       26
Fe     8.453805220      2.741050816      5.652083968     -0.041538228      1.861611328     -0.030877149       26
Fe     9.960314015      4.246677228      6.971472235     -1.352667636      0.169524142      1.251527124       26
Fe     8.551688758      2.745388343      8.434065308     -0.827861009      0.996280862      0.097195154       26
Fe     9.779237420      4.134183920      9.964490435      1.084522407      1.098591740     -0.125165414       26
Fe     8.464621230      5.712993946      0.042724352      0.621318382     -0.951193998     -0.093526961       26
Fe     9.920248147      7.118756643      1.530688051      0.322281606     -0.447481215     -0.509197203       26
Fe     8.427369863      5.666697319      2.837217068      0.849545179      0.210395939     -0.175322236       26
Fe     9.760325010      7.201868080      4.347770759      1.753983923     -1.180979140     -0.271517746       26
Fe     8.399146062      5.723193931      5.584063264      0.274438776     -0.469751339      0.955530677       26
Fe     9.814274828      7.003385043      7.072420097      0.274640607      0.864287113      0.611967280       26
Fe     8.455915991      5.598932093      8.595126407      0.135297874     -0.655390383     -1.081141663       26
Fe     9.804861484      7.108978399     10.074660973      1.282418157     -0.173863649     -0.932406947       26
Fe     8.614299655      8.547222189      0.069828847     -0.246765479      0.027391504     -0.325863666       26
Fe    10.114745487     10.022102001      1.441129018     -0.237240570     -0.242745302      0.106284775       26
Fe     8.619084484      8.485500079      2.821425744     -0.636989770      1.219689926     -0.498353833       26
Fe    10.038688297      9.927202560      4.225190096     -0.616282105      0.144615037     -0.249446368       26
Fe     8.434835980      8.675814754      5.576828562      0.713155872     -1.402871510      0.530353525       26
Fe     9.884979370      9.983184488      6.960938838      0.553140955     -0.336942293      0.674130126       26
Fe     8.445464428      8.630259341      8.482615270      1.111806439     -1.562754786     -0.273915042       26
Fe    10.068941794      9.873062495     10.003813175     -0.118602159      1.085249772      0.086169750       26
125
Lattice="11.3344 0.0 0.0 0.0 11.3344 0.0 0.0 0.0 11.3344" Properties=species:S:1:pos:R:3:force:R:3:Z:I:1 config_type=trivacancy_110_125_high config_name=trivacancy_110_125_high_0001 ecutwfc=1224.51225528 pbc="T T T" kpoints="3 3 3" timestamp=1474629170.02 degauss=0.136056917253 energy=-432594.450668
Fe     0.288912802      0.177873981      2.543089002     -0.466433844     -0.265029567      0.425523994       26
Fe     1.547037810      1.459591066      4.196786508     -0.789021411      0.664192298      0.119392259       26
Fe     0.079656463     -0.077798936      5.478957242     -1.052206469      1.257008973      1.298358996       26
Fe     1.549429935      1.533319684      7.212113018     -0.511400124     -0.533338833     -1.547492718       26
Fe     0.135822801      0.103366135      8.303586495     -1.634606320     -0.945715234      0.742499614       26
Fe     1.566244631      1.290125703      9.799680269     -1.733337965      1.233537116      1.563170791       26
Fe     0.066250769      2.634286537     -0.097707730     -0.185213270     -0.086117299     -0.357385391       26
Fe     0.982161055      3.765522665      1.638714744      2.127908449     -0.047442252      0.560382210       26
Fe     1.254729664      4.224972985      4.198165950      1.308683004     -0.056814437     -0.337554215       26
Fe     0.006082311      2.807633536      5.727745849      0.448603501     -0.067543650     -0.250676384       26
Fe     1.520700597      4.346075903      7.166158589     -0.534967369     -0.996972232     -1.206245628       26
Fe     0.102511748      2.843875620      8.571120159     -0.890594383     -0.058015399     -0.275435335       26
Fe     1.460405375      4.238362777      9.933272630     -0.706361732     -0.863785748      0.432579873       26
Fe    -0.027563436      5.511286884     -0.070455957     -0.254338920      0.719357629      0.153548335       26
Fe     1.270119206      7.262521685      1.255548937      1.669485905     -1.350985621      0.276970027       26
Fe     0.075523521      5.819370373      2.504444672     -0.828580404      0.058419834      1.781194679       26
Fe     1.373759282      7.175482912      4.144258422     -0.070137122     -0.289544007     -0.288685001       26
Fe     0.017518743      5.555711033      5.624647625      0.168545066      0.614587748     -1.006018401       26
Fe     1.408786693      7.002083877      6.917784232      0.519953670      1.149949011      1.095772011       26
Fe     0.091272421      5.583482727      8.401975446     -0.882007670      0.933432817      1.061118941       26
Fe     1.372143586      7.063265098      9.799347672      0.481407949     -0.528834774      0.247597488       26
Fe    -0.014352309      8.316811360     -0.240314578     -0.900291555      2.109261267      0.480612450       26
Fe     1.261882441      9.832275850      1.172027387      1.592203687      1.230968327     -0.394293062       26
Fe     0.123727750      8.721248651      2.587323527     -2.082875578     -0.914424652      1.854744940       26
Fe     1.427850213      9.987654685      4.211907698      0.497878179     -0.527873696     -1.466024488       26
Fe     0.090202102      8.588069349      5.503110100     -1.035790232     -0.563856027      0.620442407       26
Fe     1.469364833      9.851285815      7.106692421     -0.550102168      0.584455962     -0.172323302       26
Fe     0.136892689      8.684237142      8.604636048     -1.418084727     -0.872790779     -1.273199210       26
Fe     1.467625320     10.084437959     10.024283374     -1.284596139     -0.190977169     -0.275828457       26
Fe     2.841266497      0.074188884      0.181957799     -0.397271171      0.104155902     -0.881180289       26
Fe     4.309216264      1.456633037      1.554688167     -0.002316821      0.219316639      0.117578860       26
Fe     2.829832445      0.057298872      2.718638479     -0.434988225      0.147754611      1.042102291       26
Fe     4.173495835      1.463712900      4.462998264      0.717924754     -0.315812967     -0.878660865       26
Fe     2.681571987     -0.114333595      5.744103009      1.642141452      1.518676566      0.207210600       26
Fe     4.298858856      1.541190744      7.068354867     -0.456451794     -0.120332768      0.680757401       26
Fe     2.845218009      0.026399121      8.650143199      0.817855047     -0.359094403     -2.864240758       26
Fe     4.170760346      1.538082659      9.784698459      0.481652975     -0.142818093      2.080944165       26
Fe     2.691998672      2.581889952      0.145581198      0.263165260      1.290891485      0.176894980       26
Fe     4.138446323      4.435397039      1.441531185      1.018776215     -1.454504660     -0.116608783       26
Fe     3.052524344      3.004795798      2.986131294     -1.303268004     -0.931427357     -0.927238002       26
Fe     4.194960865      4.496102725      4.213912742      0.829000008     -1.422021343      0.571167216       26
Fe     2.776113986      2.896578279      5.729301574      0.504110018      0.543458438     -0.331273267       26
Fe     4.181493014      4.314003768      7.173849330      0.986897621     -0.135001683     -0.623899512       26
Fe     2.880973383      2.975169614      8.554060221      0.106225383     -0.814727300     -0.145439847       26
Fe     4.273019699      4.213204761     10.020623167      0.054106808      0.606195411      0.113458667       26
Fe     2.625760325      5.581943856      0.021877784      0.857359532      0.718717425      0.400423086       26
Fe     4.167057522      7.059665417      1.491026333      1.209253561     -0.404853868     -0.757813362       26
Fe     2.790937556      5.790082600      2.744951549     -1.213687943     -0.806256030      0.460321561       26
Fe     4.113526613      7.118425361      4.420497392      1.702591172      0.320913779     -1.826562822       26
Fe     2.800661905      5.744940847      5.488971626     -1.092796217     -1.009262362      1.738374756       26
Fe     4.231947313      6.885135787      7.114027070     -0.356521757      2.011683275      0.402430346       26
Fe     2.834010691      5.638530803      8.618335676      0.658394460      1.000794948     -0.325260743       26
Fe     4.371343171      7.156440950     10.047426802     -0.911793128     -1.266435152     -1.030939332       26
Fe     2.778149701      8.419716615     -0.209288506      0.260901404      0.521664225      1.842487463       26
Fe     4.112672113      9.973258353      1.488836165      1.087036431     -0.779883711     -0.288464400       26
Fe     2.957411250      8.413405304      2.723090813     -1.765326088      1.418066472      1.086721985       26
Fe     4.163737212      9.970202860      4.376032405      0.356877341     -0.280608395     -0.570547323       26
Fe     2.853383844      8.556375170      5.646881773     -0.803344770     -0.815408386      0.548775479       26
Fe     4.307544951      9.778018938      7.107935759     -0.507725246      1.414886532      0.942559976       26
Fe     2.822925296      8.606285690      8.526434672      0.330156123     -1.788988721     -0.663858826       26
Fe     4.078309680      9.990352873      9.875585759      2.120255818     -0.591810089      1.239310785       26
Fe     5.566552466      0.003506807      0.133863911     -0.445282150     -0.356562123     -0.358479138       26
Fe     7.059911328      1.333293479      1.515220540     -0.092608049      0.503428676     -0.123885261       26
Fe     5.584965471     -0.084602387      3.048426958      0.309653890      0.506103137     -0.993880994       26
Fe     7.137309152      1.259335193      4.228149405     -0.058770532      0.968974461      0.541769737       26
Fe     5.629802521      0.055950905      5.833663663      0.397533166     -0.610192962     -0.558237653       26
Fe     7.188876285      1.465370613      7.083961327     -1.325901939     -0.250652215     -0.003049585       26
Fe     5.554389114      0.182419823      8.617565651      0.697721282     -1.499204059     -1.385045795       26
Fe     6.838337376      1.440451062     10.036968313      2.041116235     -0.488120585     -0.028652373       26
Fe     5.653038982      2.799741642      0.100044396     -0.616069732      0.466234841      0.158534218       26
Fe     7.019718866      4.182564636      1.404615429      1.202411084     -0.028739534      0.548971397       26
Fe     5.646145683      2.881897499      3.009602467      0.300384806     -0.335524329     -0.622794195       26
Fe     7.151104431      4.320630107      4.204194514      0.350285804     -1.463588625      0.924378164       26
Fe     5.698311874      2.993412354      5.706558092     -0.080280638     -0.688485880     -0.182112262       26
Fe     7.151208844      4.363048453      6.998444741      0.175518926     -0.646028483      1.024648614       26
Fe     5.861085022      2.956391279      8.573241607     -1.556531431      0.228938478     -0.657380932       26
Fe     7.188617090      4.294895477     10.072429434     -0.227625159     -0.374696628     -1.021628082       26
Fe     5.800549681      5.593175045      0.027093840     -1.661710889      0.777181481      0.678095281       26
Fe     7.130881651      7.046049799      1.464645891     -0.576875322      0.683588957      0.282105548       26
Fe     5.914172337      5.633143392      2.954356675     -2.575751418      1.281732701     -1.065276414       26
Fe     7.106909973      6.996462049      4.497357126     -0.161868425      0.241143762     -2.171478106       26
Fe     5.620615049      5.672774145      5.691858033      0.410700299     -0.120424814      0.278383619       26
Fe     7.148304778      7.167365203      6.986061104     -0.555467032     -1.573675547      1.363026868       26
Fe     5.701240978      5.717964103      8.516856186      0.420024405     -0.666271806      0.361115547       26
Fe     7.108625627      6.980740737     10.045709980     -0.036283921      1.060589808     -1.020911259       26
Fe     5.494532022      8.474305443      0.240964368      1.326099656      0.578620072     -1.040157508       26
Fe     7.071497329      9.839858881      1.529421953     -0.917311487      0.033302213      0.339801874       26
Fe     5.676058525      8.484678403      3.085971240     -0.671357191     -0.699906463     -1.504768955       26
Fe     6.997204690      9.761818556      4.339502813      0.924197672      1.438660751      0.659839677       26
Fe     5.574376965      8.494160807      5.752233729      0.563135861     -0.569421180     -0.075117863       26
Fe     7.102850796      9.791887155      7.143956981     -0.690640979      1.132307644     -0.088748052       26
Fe     5.773607495      8.381310568      8.550135266     -1.290191116      0.472953391     -0.120972716       26
Fe     6.871858274      9.906443550      9.903648872      0.085882043     -0.460269111      0.159158996       26
Fe     8.152340919     -0.213884979     -0.052042158      1.300769149      2.110485112     -0.155432697       26
Fe     9.948302487      1.255327043      1.297063194      0.194554602      1.237842171     -0.100889829       26
Fe     8.640261620     -0.009777337      2.725538284     -1.526732346     -0.019290987      0.810058177       26
Fe    10.120824432      1.439382477      4.012483973     -0.377021162      0.312854142      0.630631175       26
Fe     8.439088034     -0.118548790      5.739291318      0.596971321      0.619129088     -0.751549383       26
Fe     9.864679562      1.557221156      7.100806716      0.727498256     -1.437103691     -0.262646926       26
Fe     8.473858811      0.034274342      8.493888872     -0.493590607     -0.425871607      0.031092350       26
Fe     9.927223472      1.335571263      9.940753924      0.318713686     -0.788706451     -0.100006655       26
Fe     8.651943680      2.741976247      0.052002080     -1.515957367      0.062125308      0.089172798       26
Fe    10.058296378      4.088563141      1.514170385     -1.429676546      0.463501501     -1.464430404       26
Fe     8.527605391      2.855977415      2.770673429     -0.616704795     -0.905745379      0.419784264       26
Fe    10.116356411      4.185983125      3.981426063     -0.611793216      0.118996823      0.874318272       26
Fe     8.511070236      2.786903859      5.597031915      0.452774088      0.320462550     -0.383703974       26
Fe    10.006645461      4.220718153      7.130908525     -0.690928942     -0.495432802     -0.285056146       26
Fe     8.374738100      2.686920680      8.690345523      1.201394727      1.440802994     -0.997336043       26
Fe     9.812691582      4.223296253      9.906867819      1.057332734     -0.097098738     -0.238584743       26
Fe     8.557687365      5.715249707      0.031918770      0.444116926     -0.734421465      0.345514093       26
Fe     9.863855970      7.332915098      1.292368769      0.430592667     -1.292225630      0.899822329       26
Fe     8.491659985      5.686260550      2.795250885      1.136209293     -0.021477710     -0.190429781       26
Fe     9.877792714      7.189532808      4.111378744      1.653549951     -1.224824419      0.259881704       26
Fe     8.624552946      5.500378782      5.574766869      0.344241912      0.875521548      0.168763866       26
Fe    10.111228717      6.969670372      6.879286194     -0.688090959      1.371779160      1.188995325       26
Fe     8.647722160      5.831473324      8.357429032     -1.137366032     -1.426215327      0.431718039       26
Fe     9.911445784      7.059352746      9.810223108      0.235752930     -0.025868897      0.117975838       26
Fe     8.420402732      8.483742465      0.006532253     -0.235940106      0.466745462     -0.523676627       26
Fe     9.888724097     10.214636200      1.137078354      1.052956717     -1.992430341      0.073822284       26
Fe     8.484735392      8.508900582      2.983144997     -0.437684026      0.150246010     -1.775668093       26
Fe     9.817586082      9.991845126      4.136338090      1.403825132     -0.375373599      0.523175005       26
Fe     8.554803610      8.291804998      5.644894740      0.423512877      1.927801807      0.264038149       26
Fe     9.817701477      9.803374308      7.015955652      1.322326820      0.652041522      0.401537659       26
Fe     8.441663176      8.469057457      8.525867669      0.600507102     -0.209025799     -0.203991065       26
Fe     9.695621829      9.937927510      9.843535737      1.436834240      0.005742559      0.323570242       26
125
Lattice="11.3344 0.0 0.0 0.0 11.3344 0.0 0.0 0.0 11.3344" Properties=species:S:1:pos:R:3:force:R:3:Z:I:1 config_type=trivacancy_110_125_high config_name=trivacancy_110_125_high_0002 ecutwfc=1224.51225528 pbc="T T T" kpoints="3 3 3" timestamp=1474629170.02 degauss=0.136056917253 energy=-432595.017747
Fe    -0.198304611      0.154458074      2.858858121      1.854969398     -0.424806142     -0.605882764       26
Fe     1.337082660      1.442765422      4.149154452     -0.161594345      0.467861835      0.618507652       26
Fe     0.017521010      0.046154584      5.614580637     -0.525420606      0.409262281      1.583934248       26
Fe     1.496736808      1.473385417      7.076681049     -0.635526298     -0.575404394     -0.103893906       26
Fe     0.075952120      0.009401295      8.559846885     -0.940173478     -0.383202608     -0.663557235       26
Fe     1.263331975      1.414346533      9.910760721      0.484255960      0.768763433      1.090775844       26
Fe    -0.001333016      2.832184231      0.036543262     -0.378305428     -0.306014493     -0.727328820       26