128
Lattice="11.25505866 0.0 0.0 0.0 11.25505866 0.0 0.0 0.0 11.25505866" Properties=species:S:1:pos:R:3:force:R:3:Z:I:1 config_type=phonons_128_high config_name=bcc_bulk_128_expanded_0000 ecutwfc=1224.51225528 pbc="T T T" kpoints="3 3 3" degauss=0.136056917253 energy=-442984.930605
Fe      0.02709052      -0.06641977       0.01366375      -0.89684936       0.35792712       0.02971270       26
Fe      1.25216629       1.38421908       1.49115700       1.15588286       0.08464817      -0.43096548       26
Fe     -0.07181482      -0.23483188       2.80963705       0.01575058       2.02825326       0.32196665       26
Fe      1.28181151       1.28630860       4.25680668      -0.01819827       0.64485426      -0.26232837       26
Fe     -0.01002227      -0.21278159       5.71549903      -0.31470919       1.73301941      -0.08824052       26
Fe      1.44799572       1.49255352       7.06125791      -0.79361160      -1.80786679      -0.88031048       26
Fe      0.12033891       0.00729780       8.49146664      -1.68481816      -0.08657136      -0.92469081       26
Fe      1.51056245       1.24436256       9.67841041      -0.27252459       1.84253092       1.71573337       26
Fe      0.10350882       2.82327115      -0.00123918       0.17145813       0.07202868       0.74606213       26
Fe      1.54462872       4.21853167       1.42905362      -0.47955084       0.05941716      -0.57813491       26
Fe     -0.01759170       2.99301032       2.78177187      -0.68535145      -1.59212218       0.40279544       26
Fe      1.35211504       4.19842310       4.15522110       0.63134646      -0.13020863       1.23972370       26
Fe      0.00220307       2.80479731       5.64474366      -0.64918940      -0.31239031      -0.39763524       26
Fe      1.40943728       4.10010478       7.15687863       0.67272450       1.71699732      -1.29451108       26
Fe      0.09264849       2.83746721       8.51603074      -0.77430802      -0.69423435      -0.25450527       26
Fe      1.46444885       4.25939493       9.76414223       0.51772041      -0.11937040       1.17599017       26
Fe      0.12710697       5.66951427       0.05950984      -0.72689610      -0.80375435      -0.19243241       26
Fe      1.36282912       7.01953328       1.46453781       0.65065518       0.75258451      -0.17762003       26
Fe      0.00188829       5.75135198       2.80763633       1.05230983      -1.99605328       0.50275016       26
Fe      1.44132765       6.95817501       4.25270920       0.59365614       1.17998952      -0.59172396       26
Fe      0.24751992       5.61834871       5.62912360      -1.56932935      -0.42972183       0.94580214       26
Fe      1.38408413       7.04205758       7.09339865       0.92868476       0.35904735      -0.05520364       26
Fe      0.04340370       5.75692346       8.50576234      -0.01617867      -0.61064522      -0.09503928       26
Fe      1.45640414       7.22744018       9.95598354      -0.68012800      -1.15186448      -1.69560728       26
Fe     -0.07161985       8.47513974      -0.04457533      -0.04428571      -0.51703315       0.93275430       26
Fe      1.35169953       9.76318980       1.44378877      -0.06792623       0.64861141      -0.40704213       26
Fe     -0.14832796       8.44248252       2.75982149       1.08125094      -0.47013649       1.28091458       26
Fe      1.33251572       9.80481715       4.26646611       1.04289908       0.07710610      -1.19801270       26
Fe      0.24883161       8.39140643       5.52544383      -2.57886168      -0.03761421       1.44060091       26
Fe      1.53371088       9.78638464       7.04522946      -1.11206303       0.28802397      -0.63329972       26
Fe     -0.01044678       8.69323091       8.49056417       0.54187258      -3.19083873      -0.36021206       26
Fe      1.39390617       9.84837273       9.85678499       0.75837309       0.19787261       0.03277874       26
Fe      2.66506065       0.02970443      -0.02528123       0.79621304       0.01110459       0.40009218       26
Fe      4.12925232       1.35820426       1.41588280       0.34735680       1.01625885      -0.03521923       26
Fe      2.76673110       0.04075088       2.77645854      -0.65345717      -0.34421594       0.84259137       26
Fe      4.21209847       1.48217418       4.20336203      -0.76068168      -1.25146490      -0.02056420       26
Fe      2.73651796      -0.12027158       5.50311785       0.80541631       1.12921229       0.96862813       26
Fe      4.22565707       1.39564869       7.05221094      -0.18322581      -0.06352450      -0.57563939       26
Fe      2.82534166      -0.07390665       8.21925477       0.77541411       0.84127060       1.77631010       26
Fe      4.30153116       1.37744296       9.80463358      -0.74070704       0.61255889      -0.66568611       26
Fe      3.00699045       2.73333410       0.00245357      -1.88536061       0.97340987      -0.50186313       26
Fe      4.24414098       4.29611312       1.47529328      -0.40766691      -0.22868394      -0.51392238       26
Fe      2.74882042       2.73735412       2.95472777       0.08332380       0.60035952      -1.26220517       26
Fe      4.19754349       4.18545197       4.36321122       0.05456112       0.11222042      -1.73367529       26
Fe      2.73997118       2.77096451       5.67603640       0.63862911       0.19640425      -0.51869820       26
Fe      4.37430510       4.04807031       7.11181522      -1.23829134       1.73215963      -0.77055678       26
Fe      2.83429167       2.77900499       8.41931135       1.01157455       0.24127309       0.79713324       26
Fe      4.35930901       4.32108994       9.75443030      -1.12867879      -0.74378285       0.66325487       26
Fe      2.82739358       5.72530585      -0.17581457      -0.19448981      -1.42079210       1.81760484       26
Fe      4.03474136       7.03362849       1.41059603       1.07833556       0.05053015       0.28610798       26
Fe      2.73514648       5.61807948       2.95816438       1.11213143      -0.13416993      -1.43730938       26
Fe      4.27838341       6.98628937       4.19017075      -1.28665276       0.79295083       0.61197037       26
Fe      2.91071518       5.59215975       5.61979864      -0.87098766      -0.48912074       1.00762097       26
Fe      4.24862629       6.88269699       7.06286234       0.00161877       1.79885430      -0.67800863       26
Fe      2.78826858       5.71791221       8.37570917       0.19609315      -0.97583519       0.66905914       26
Fe      4.16813392       7.03903072       9.87010631       0.53320745       1.30939520      -0.42227618       26
Fe      2.75357289       8.46298048       0.05777450       0.55491707       0.64283363      -0.21208850       26
Fe      4.09188614      10.01184481       1.37470383       0.43950257      -1.74498198       0.21981672       26
Fe      2.77392725       8.57759764       2.87086974       0.04689409      -1.42634877      -0.10776573       26
Fe      4.25972346       9.87962069       4.17578775      -0.82115094      -0.15062576      -0.12440051       26
Fe      2.85422659       8.37563377       5.67931691       0.70081535       0.09156367      -0.64113644       26
Fe      4.41954935       9.88745103       7.02093398      -1.94530511      -0.21500438      -0.64710140       26
Fe      2.91059740       8.52470142       8.33968461      -0.24407122      -0.74846534       1.29147641       26
Fe      4.16637817       9.99461059       9.89027690      -0.08970296      -1.35738227      -0.71197496       26
Fe      5.45627887       0.05578668      -0.02559936       1.95638193       0.14861439       0.32365200       26
Fe      7.00639129       1.50861147       1.38943376      -0.30154077      -0.67780449      -0.46627007       26
Fe      5.60419135       0.02105048       2.66044578       0.03183488      -0.03316106       1.02637562       26
Fe      7.06991616       1.38253540       4.17742855      -1.44898373       0.45727403      -0.62931760       26
Fe      5.44105496       0.07427156       5.51566585       1.73548766      -0.54891766       0.30284587       26
Fe      6.84752126       1.36157320       7.00468873       2.04387323       0.64359391      -0.65944296       26
Fe      5.76009631       0.00450780       8.44780000      -1.65990417       0.19238022      -0.38524021       26
Fe      7.07213393       1.42451083       9.81448415       0.10302693       0.19051540       0.73141405       26
Fe      5.56508849       2.89757940      -0.07280386       1.06866513      -0.35380024       0.81912671       26
Fe      7.02778982       4.29766007       1.53779025      -0.20798784      -0.14248076      -0.63879674       26
Fe      5.53591171       2.74938051       2.78357943       0.81789336       1.22550576       0.25538716       26
Fe      7.12902761       4.23477118       4.28106634      -0.85914054       0.61714137      -0.73335394       26
Fe      5.60545905       2.80297543       5.51372359       0.79061061      -0.00212887       0.97738300       26
Fe      7.08257222       4.36754865       6.89890630      -0.06725286      -1.38660568       1.02719889       26
Fe      5.81338160       2.86413254       8.37342794      -0.59349930      -0.13943169       0.95285287       26
Fe      7.17433601       4.19413365       9.91764063      -1.14230101       0.10066203      -0.72592860       26
Fe      5.74548174       5.74741434      -0.00590598      -1.57082085      -1.35556013       0.03357501       26
Fe      6.95891233       6.93246452       1.43523313       0.65460594       1.55000623      -0.20134797       26
Fe      5.57536644       5.72052059       2.83961437       0.49747194      -1.24717656       0.29352536       26
Fe      7.09046197       7.14493286       4.18578252      -0.91338798      -1.14660298       0.56413653       26
Fe      5.59491156       5.62373401       5.59707922       1.05883349       0.22052146       0.24338859       26
Fe      7.07525814       7.10692525       7.05024651      -1.15672130      -0.97145198      -1.10821152       26
Fe      5.56898059       5.75875324       8.51341694       1.31919342      -1.19572082      -1.01134521       26
Fe      7.00676483       7.05835458       9.77704242      -0.40281318       0.46300348       0.83294845       26
Fe      5.55072117       8.46397953       0.07395123      -0.41958757      -0.37584385      -1.09321813       26
Fe      6.93197067       9.74507172       1.27515513       0.51250287       1.04572986       0.74944699       26
Fe      5.48216204       8.41621483       2.80211686       0.77932064       0.41072344      -0.78841463       26
Fe      6.99474375       9.87437357       4.06120762      -0.67927336      -0.65276837       0.46074065       26
Fe      5.59513663       8.41052964       5.54329355       0.35983925       0.05553968       0.33925757       26
Fe      6.98730163       9.75807291       6.92405605       0.31289656       0.23463861       0.75688802       26
Fe      5.53729727       8.50589228       8.43196865       1.05763638      -0.41897745       0.68347480       26
Fe      6.96619175      10.00124406       9.83935065       0.77341662      -1.81661111       0.00954908       26
Fe      8.44586597      -0.01833745      -0.01093032      -0.14908079       0.36281505       0.11026510       26
Fe      9.87195188       1.34813629       1.50413227      -0.23049760       0.49962987      -0.61609981       26
Fe      8.32346143      -0.00701422       2.71311777       0.54209961      -0.45269875       0.17349135       26
Fe      9.73414561       1.17906878       4.22695204       0.99884631       1.40874082       0.12707986       26
Fe      8.10885974      -0.05847038       5.58322565       2.72527186      -0.10289812       0.58735771       26
Fe      9.83731417       1.38003715       7.09073164       0.79333469      -0.25715248      -1.23834585       26
Fe      8.45687845       0.06513701       8.33296214      -0.13032639      -1.25213133       0.73296262       26
Fe      9.91593203       1.52571436       9.99269963       0.01642781      -1.91919710      -0.69976891       26
Fe      8.46293083       2.87676660       0.11936951       0.01269482      -0.64934803      -0.52076280       26
Fe      9.71661569       4.28057315       1.47462024       1.48381909       0.21315499      -0.40651840       26
Fe      8.41361864       2.87268827       2.83743078       0.47538437      -0.51245685       0.27401814       26
Fe      9.86686431       4.41598681       4.21888387       0.50223491      -2.42367427       0.46698226       26
Fe      8.41181928       2.74450656       5.53975122       0.82366908       0.44495176       1.27132488       26
Fe     10.03652249       4.29081107       7.09244629      -1.20657396      -0.58029463       0.06033145       26
Fe      8.60789697       2.68112849       8.47977640      -1.22470949       1.94286873      -0.47196712       26
Fe      9.98727606       4.13468569       9.93190227      -0.81022504       1.43856382      -0.42695533       26
Fe      8.42955271       5.65095693      -0.06088288       0.30828683      -0.40374855       1.16333289       26
Fe      9.89856516       6.90300284       1.59203373      -1.01892920       1.83617900      -2.82221299       26
Fe      8.55011836       5.82604628       2.97732981      -1.79753430      -2.03326126      -0.80260635       26
Fe      9.98104870       6.91387646       4.37090454      -0.12872485       2.52048247      -0.81276632       26
Fe      8.67605588       5.66717647       5.73529230      -1.99086608      -0.26321874      -0.39898687       26
Fe      9.92373251       7.09122758       6.97509906       0.74012649      -0.42745464       1.08866188       26
Fe      8.24676443       5.62192411       8.46242971       2.59291225      -0.42106982      -0.22476146       26
Fe      9.89695544       6.90443180       9.95342557      -0.27138919       1.20264351      -1.00681750       26
Fe      8.38022831       8.33844203      -0.10688717       0.23664330       0.47688409       0.95102353       26
Fe      9.76500869       9.77111402       1.43741009      -0.35942710       0.09041850      -1.05248543       26
Fe      8.32673198       8.38649209       2.69835294       0.86104032       0.73833417       0.78340586       26
Fe      9.78480011       9.83876162       4.28436716      -0.43124213      -0.76979624      -0.55909434       26
Fe      8.46489279       8.38659148       5.53939400      -0.07399712       0.53917627       0.61577483       26
Fe      9.89000737       9.70276961       7.05793014      -0.98933220       1.31848122      -0.65699424       26
Fe      8.45868842       8.23133424       8.37287432       0.27713561       2.23213300       0.86629386       26
Fe      9.76617459       9.77346169       9.80130769      -0.20272711       1.16169072       0.48091250       26
128
Lattice="11.25505866 0.0 0.0 0.0 11.25505866 0.0 0.0 0.0 11.25505866" Properties=species:S:1:pos:R:3:force:R:3:Z:I:1 config_type=phonons_128_high config_name=bcc_bulk_128_expanded_0001 ecutwfc=1224.51225528 pbc="T T T" kpoints="3 3 3" degauss=0.136056917253 energy=-442984.114028
Fe      0.08455500      -0.09528153      -0.05483430      -0.64522141       0.46730185       0.47237181       26
Fe      1.33153794       1.40657331       1.34007575       1.49292800       0.47319250       0.73481433       26
Fe      0.13958537       0.02129593       2.71114381      -0.09758236      -0.25343209       0.89592531       26
Fe      1.65220019       1.35625259       4.14498545      -1.18478206       1.04692645       0.19262396       26
Fe      0.16083688       0.24111608       5.76354430      -1.12531270      -2.03629027      -1.60280692       26
Fe      1.42925961       1.45401484       7.04179384       0.04895020       0.93689789       0.49796302       26
Fe     -0.01505415       0.13003963       8.59014885      -0.15814804      -1.05813980      -1.22504373       26
Fe      1.40708887       1.42401171       9.76794751      -1.06810411       0.36717718       1.27469713       26
Fe      0.12081849       2.87531472       0.06183790      -1.52079001      -0.31894817      -0.33026077       26
Fe      1.43231421       4.24818937       1.36290802       0.35440343      -0.68586413       0.51306466       26
Fe      0.05109431       2.93853174       2.87688966       0.03921241      -1.03969137      -1.49395669       26
Fe      1.43854935       4.31436197       4.05545901       0.35576302      -1.62634177       1.44273904       26
Fe      0.03217646       2.90163301       5.51017872       0.05672753      -0.65541352       0.61617772       26
Fe      1.44070020       4.30139141       6.95737061      -1.73755355      -1.62897432      -0.61230461       26
Fe     -0.12967490       2.98489985       8.49640266       0.95260296      -1.20255841      -0.52679255       26
Fe      1.33932670       4.28087482       9.86968375      -0.02240228      -0.66449749      -0.77987677       26
Fe      0.00906057       5.54677096       0.05629644       0.02238300       1.26933407      -0.09326548       26
Fe      1.37594275       7.07241083       1.47882537       0.22815609      -0.27365973      -1.30493356       26
Fe     -0.05034964       5.60562938       2.72691700      -0.72022126       0.04648863      -0.10971026       26
Fe      1.21197736       7.02091373       4.00598604       1.31485699       0.34914501       1.84951197       26
Fe      0.00251740       5.40771368       5.41630025      -0.83514212       2.31865113       1.32328713       26
Fe      1.15816252       6.98910631       7.14055642       1.36458856       0.47143824      -1.74052703       26
Fe     -0.24433277       5.70539340       8.47523864       2.43500615      -1.80958660      -1.20443634       26
Fe      1.44276935       7.11024664       9.90025858      -0.08547092      -1.51484896      -0.08018499       26
Fe      0.12129778       8.41372112      -0.00631820      -1.19923834       0.11525921       0.26640588       26
Fe      1.57134314       9.81393088       1.32840828      -1.13768253       0.18898199       0.74838615       26
Fe     -0.09639144       8.55061705       2.79352386       0.91226210      -0.85452283      -0.09793255       26
Fe      1.43766734       9.83106095       4.16062124       0.49024380       0.73436104       0.25756463       26
Fe      0.10967861       8.49270137       5.44223142      -0.96965786      -0.44564648       2.08960955       26
Fe      1.46967821       9.97695096       7.10088675      -0.54685744      -1.33648948      -0.12482166       26
Fe      0.03776897       8.41062192       8.54836180      -0.33873152       0.72742009      -0.77295485       26
Fe      1.54290590       9.82040898       9.95822760      -0.85548828      -0.20949220      -1.35623684       26
Fe      2.69505135       0.07613612      -0.05389423       1.94389691      -0.75018258       0.76269100       26
Fe      4.24743014       1.38930499       1.29881213      -0.36349176       0.51084399       1.38593565       26
Fe      2.91863331      -0.01078148       2.72009616      -0.15686094       0.33305427       0.86062175       26
Fe      4.36204567       1.47484095       4.23858754      -1.64112869      -0.43055384      -0.47837379       26
Fe      2.90004367      -0.10081019       5.54345283      -0.80920843       0.64756857       0.84545584       26
Fe      4.03031964       1.29865027       7.20256921       1.68020946       1.42178403      -1.45821605       26
Fe      2.79387137       0.01258598       8.52263891      -0.35516139      -0.89474543      -0.24921985       26
Fe      4.16004489       1.34392030       9.81729792       0.95660900       0.78327705       0.50778490       26
Fe      2.79988453       2.68817743      -0.04795597       0.19585789       1.55436399       0.36550751       26
Fe      4.34473151       4.24938946       1.29915977      -1.64903792      -0.71306820       0.50632477       26
Fe      3.00761494       2.90209964       2.81820387      -0.81097349      -0.51529894      -0.63650537       26
Fe      4.31452397       4.29886047       4.26986215      -0.35015853      -0.31858616      -1.04635901       26
Fe      2.85120329       2.87266790       5.65882165      -0.17003862      -0.46733913      -0.52649790       26
Fe      4.15144005       4.18314594       7.12682340       0.09533110      -0.01164195      -1.31488810       26
Fe      2.68532578       2.77210905       8.54595592       0.74042422       1.11716436      -1.27183215       26
Fe      4.13569375       4.26846488       9.75850935       0.13563315      -1.24560305       0.87259615       26
Fe      2.79011429       5.45804089      -0.09702726      -0.03396890       1.68081161       0.86953448       26
Fe      4.06990939       6.88387015       1.34788703       1.57873471       0.41991153       0.81348726       26
Fe      2.67295596       5.62973017       2.81607719       2.09987263       0.22939896      -1.15511950       26
Fe      4.27452370       7.03968836       4.03338316      -0.40609751      -0.30812845       1.09021431       26
Fe      2.84147648       5.64259928       5.46876071      -0.79830284       0.45675775       0.79849156       26
Fe      4.01843447       6.96978161       7.09909702       1.08308207       0.38144192      -0.17502964       26
Fe      2.53991979       5.52599767       8.25838410       1.89971276       1.65008128       2.57476746       26
Fe      4.22928623       6.98311782       9.99450231       0.27460487      -0.00699443      -1.34065261       26
Fe      3.01649296       8.37610214       0.04201874      -1.61772343       0.85926703      -0.04996348       26
Fe      4.24165120       9.92381181       1.43576780       0.48878573      -0.74738908       0.02700404       26
Fe      2.80980766       8.49858564       2.82215758       0.32157224      -0.78405301      -0.27505276       26
Fe      4.25873571       9.70089279       4.33154201       0.02967233       0.74429013      -1.11001489       26
Fe      2.77310108       8.35337899       5.67343854      -0.32970927       0.29067375      -0.16355070       26
Fe      4.28172192       9.88890755       7.22882810      -0.91001881      -0.80772721      -1.08896836       26
Fe      2.85126888       8.37726872       8.52750556      -0.37306963       0.63779298      -0.29212231       26
Fe      4.26256404       9.92458505       9.88201853      -0.08703724      -0.40523850       1.17115521       26
Fe      5.64039632       0.03256224       0.16951738      -0.38830933      -1.13848498      -1.46447900       26
Fe      7.01432838       1.31359091       1.38612222       0.37000385       0.49208831       0.77574835       26
Fe      5.72805297      -0.00626172       2.99520597      -0.44301110      -0.43996922      -0.98052360       26
Fe      7.02298626       1.49626534       4.28351301       0.64998747      -1.08885677      -0.35112887       26
Fe      5.42210073       0.02051303       5.64718180       2.27351696      -0.38108016       0.63972877       26
Fe      6.84960496       1.41810677       7.08598909       1.17146169      -0.01505561      -0.43926551       26
Fe      5.72579943      -0.01702328       8.53718592      -1.05429549       0.06409812      -0.55950649       26
Fe      6.91612984       1.28118784       9.97070188       1.11731246       1.32010539      -0.87972993       26
Fe      5.53842411       2.85296507      -0.06051189       0.47748033      -0.72113092      -0.05374711       26
Fe      6.97072544       4.30281942       1.35185520       1.16499613      -2.01107341      -0.63745900       26
Fe      5.73198817       2.70964107       2.75613587      -1.18005406       1.11920556      -0.13833203       26
Fe      6.99732717       4.22527342       4.11777298      -0.13389199      -0.06095880       0.78766593       26
Fe      5.59713641       2.85154284       5.57598488       0.05938811       0.28568375       1.38701680       26
Fe      6.99356776       4.25942817       7.09459843      -0.91326200      -0.59101048      -0.75301517       26
Fe      5.62463073       2.83741048       8.42418530      -0.88741084      -0.49156715       0.74716385       26
Fe      7.09235205       4.09388891       9.87406431      -1.61401101       1.24590566      -0.18898019       26
Fe      5.76392386       5.59517545      -0.03768938      -1.08645973       0.57169635      -0.71209683       26
Fe      7.17225937       6.95162866       1.38104506      -0.88544755       0.68656784      -0.06811418       26
Fe      5.69773180       5.51145480       2.62379799      -0.99759264       1.95329584       2.09210815       26
Fe      7.04648330       7.08473283       4.21411171      -0.62602916      -0.15088596      -0.73797010       26
Fe      5.58635905       5.74793864       5.67004494      -0.14253913      -1.03465149      -0.34899871       26
Fe      6.91638103       7.06751514       7.05056825       0.92556396      -0.31349409       0.90315936       26
Fe      5.38254915       5.57147238       8.46173433       2.18390450       1.11109219      -0.00089063       26
Fe      7.04052974       7.08603005       9.86595551       0.05922973      -0.88537581       0.02392026       26
Fe      5.76220657       8.43249006       0.19559707      -1.26640816      -0.10493597      -1.39587065       26
Fe      7.06794225       9.85591474       1.48725233       0.25783253       0.88169348       0.14736689       26
Fe      5.63451907       8.43021068       2.73631711       0.31664703      -0.09554605       0.78391469       26
Fe      7.25576410       9.87405498       4.25403559      -1.53238774       0.07155380      -0.21037948       26
Fe      5.55040197       8.38546807       5.78226648       0.35004978       0.58117678      -0.89887308       26
Fe      7.05156017       9.82524938       6.98928134       0.19968164       0.08285020       0.67661124       26
Fe      5.59730013       8.53847148       8.64461520       0.45287745      -1.24976875      -1.07560299       26
Fe      7.03683909       9.93576664       9.94448964       0.46903811      -0.84693911      -0.43240761       26
Fe      8.52445936      -0.04866863       0.03083983      -0.40866167       0.25992027       0.27300281       26
Fe      9.90950273       1.42666953       1.42446512       0.24634742       0.57837145      -0.51786233       26
Fe      8.65975857       0.12522828       2.76890630      -1.63828197      -1.24305637       0.71393183       26
Fe     10.05068745       1.43279272       4.07430911      -1.23209961       0.38224976       1.68276822       26
Fe      8.35418105       0.12852362       5.69556975       1.34928509      -0.52894327      -0.34973070       26
Fe      9.85891254       1.50306531       7.05852112      -0.10682522      -0.05826377       0.01170983       26
Fe      8.52649961       0.08471608       8.42519841      -0.80927425      -0.56400335       0.46172281       26
Fe      9.85707957       1.44033684      10.13121271      -0.03230617       0.33211839      -2.33814447       26
Fe      8.23571847       2.75491062       0.03196840       1.77468593       0.04136776       0.11263977       26
Fe      9.67435438       4.16117306       1.41181842       1.76330520      -0.22786144      -0.69722146       26
Fe      8.32443979       2.78453999       2.70442538       0.94938111      -0.17543074       0.88793149       26
Fe      9.72528641       4.26241827       4.06410727       0.13588614      -1.01851139       1.18333787       26
Fe      8.37078916       2.81073830       5.66426673       0.39918690       0.20102735      -0.60233978       26
Fe      9.73689372       4.18703594       6.98964703       0.44412927       0.32337921      -0.15281146       26
Fe      8.34128969       2.78986753       8.51454736       0.81251641      -0.87209864      -0.26301331       26
Fe      9.86915805       4.28265636       9.90930883      -0.37333960      -2.14771520      -0.18767356       26
Fe      8.59911588       5.56597412      -0.11025514      -2.24426218       0.86717523       1.32435773       26
Fe      9.85657325       7.01829527       1.41664597       0.02423830       0.21362910      -0.70059012       26
Fe      8.39672538       5.53005847       2.70263802       0.12083619       1.31664957       0.83768751       26
Fe      9.70312716       6.98847964       4.22569562       1.40320215      -0.37737109      -1.25652638       26
Fe      8.24797683       5.58761895       5.58646792       1.16226922       0.13992817       0.12658183       26
Fe      9.84679700       6.92729449       6.88092522      -0.52616597       0.57780580       0.41407719       26
Fe      8.34511383       5.41397827       8.48314504       0.25784231       2.37893810      -0.57288754       26
Fe      9.89268953       6.88047076       9.80341813      -0.96071634       2.60011416       1.45442933       26
Fe      8.37518762       8.55072537       0.06756706       1.43138119      -1.21168531      -0.76119668       26
Fe      9.99019358       9.89032244       1.40953208      -0.82100053      -0.13397633      -0.64070039       26
Fe      8.49127567       8.49517435       2.68580318       0.08317544      -0.30690795       1.47033828       26
Fe      9.97567279       9.94503928       4.29661527      -0.49917761       0.58375637      -0.49879658       26
Fe      8.57933437       8.41676105       5.47406218      -1.11546358       0.64902279       2.10816006       26
Fe      9.93678244       9.83810877       7.09477538      -0.11693686       0.16724203      -0.59976071       26
Fe      8.47865202       8.33479559       8.50867270      -0.36349896       0.44739045      -1.20430496       26
Fe      9.77592353       9.76216189       9.78040019       1.06077236       0.74939840       1.10554992       26
128
Lattice="11.25505866 0.0 0.0 0.0 11.25505866 0.0 0.0 0.0 11.25505866" Properties=species:S:1:pos:R:3:force:R:3:Z:I:1 config_type=phonons_128_high config_name=bcc_bulk_128_expanded_0002 ecutwfc=1224.51225528 pbc="T T T" kpoints="3 3 3" degauss=0.136056917253 energy=-442983.558555
Fe     -0.23919931      -0.11015818      -0.06501289       2.27701675       1.31436926       0.67970531       26