123
Lattice="11.3344 0.0 0.0 0.0 11.3344 0.0 0.0 0.0 11.3344" Properties=species:S:1:pos:R:3:force:R:3:Z:I:1 config_type=quinvacancy_123_high config_name=quinvacancy_123_high_0000 ecutwfc=1224.51225528 pbc="T T T" kpoints="3 3 3" timestamp=1474629351.55 degauss=0.136056917253 energy=-425675.968803
Fe     0.101582951      0.002578100      5.609635382     -0.441499544      0.011881582     -0.289300009       26
Fe     1.323794005      1.359659141      7.142043916      0.732487739      0.167356445      0.357207213       26
Fe     0.059235683     -0.075351284      8.529160176     -1.401195151      0.162490889      0.575324947       26
Fe     1.226656667      1.318730317     10.036828639      0.667149324      0.340427680     -0.587104970       26
Fe     0.007227051      2.745983615      0.023726322      0.894161017      0.145472757      0.128915110       26
Fe     1.538756478      4.290982434      1.631844772     -0.503919500     -0.525917601     -1.834280502       26
Fe     1.435247847      4.103597554      4.250727666     -0.532611982      1.193347175      0.414361293       26
Fe     0.002921238      2.718316367      5.756811863     -0.254983496      0.137913457     -0.905260726       26
Fe     1.408125897      4.158366644      7.064047602      0.125116306      0.644410745     -0.519678305       26
Fe     0.004368754      2.844336091      8.453645734     -0.442897195     -0.701616761      0.789649275       26
Fe     1.453441531      4.108612641      9.895970610     -0.240930617      0.480338884      0.144827153       26
Fe     0.090099514      5.549916061     -0.026433034     -0.103843256      0.515070631      0.430621206       26
Fe     1.482888676      7.176250795      1.410457326     -0.481692827     -0.967682996     -0.385699150       26
Fe     0.081545669      5.534530349      2.845103657     -0.539774561      1.415314107     -0.150537059       26
Fe     1.413945431      7.063346309      4.259302060     -0.147376145      0.323125184     -0.217656992       26
Fe    -0.129897472      5.536649270      5.463454265      1.348903541      0.791330519      1.393623252       26
Fe     1.421016986      6.996872275      7.002507319     -0.282316379      0.498940044      0.567171207       26
Fe     0.116349214      5.636398088      8.419718452     -0.771513999      0.136822281      0.672575123       26
Fe     1.448003422      7.104153685      9.922015939     -0.381330331     -0.165645633     -0.354528124       26
Fe    -0.024597076      8.441205856      0.081478910     -0.541511341     -0.647967095     -0.492192955       26
Fe     1.217620464      9.955038645      1.397973063      0.285615361      1.018405204      0.552400477       26
Fe    -0.088686035      8.418631449      2.670600878      0.682401364      0.326530096      1.661259660       26
Fe     1.391670014      9.815919528      4.046457398     -0.406991740      0.918290820      0.945667154       26
Fe     0.041809247      8.520752636      5.612285161     -0.311135102     -0.214268278     -0.105365606       26
Fe     1.332543641      9.938772648      7.162922629      0.743883125     -0.218611385     -0.393821007       26
Fe    -0.074037434      8.386911348      8.444300906      0.757068256      0.701294859      0.856837084       26
Fe     1.211451706      9.923273831     10.248844723      0.289424965      0.716771357     -1.833454150       26
Fe     2.769813125      0.205397010      0.067358888     -0.185565768     -0.778745226      1.012953437       26
Fe     4.198852509      1.563835413      1.490546412      0.998508980     -0.648222919     -0.231174052       26
Fe     2.872239593      0.057528847      2.750663203     -0.808022892      0.897320389      0.559805511       26
Fe     4.449309822      1.433919251      4.292634559     -1.995140026      0.180633107     -0.416064906       26
Fe     2.768475122      0.148410446      5.705345515     -0.564675695     -0.634693775     -0.777797004       26
Fe     4.096326208      1.433909277      7.152364590      1.545710944     -0.690531192     -0.660440544       26
Fe     2.724317354      0.005253381      8.708099466     -0.362582104      0.133390115     -1.334525933       26
Fe     4.299113676      1.303298747      9.938084536     -0.574999445      1.546925790      0.388407550       26
Fe     2.761352336      2.762897124      0.031636396      0.077552955      0.263493076      0.286645602       26
Fe     4.308060382      4.288688249      1.369691275     -0.241078713      0.010272071      0.368628568       26
Fe     2.881133583      2.959360733      2.973819098      1.034841238     -1.165949500     -0.432529993       26
Fe     4.323160535      4.374350811      4.258628548     -0.321404088     -0.621503501      0.069851472       26
Fe     2.757563121      2.790929520      5.712218185      0.487849848     -0.149303958     -0.904538246       26
Fe     4.356355218      4.231487624      7.080067190     -0.555996165      0.117641338     -0.173712983       26
Fe     2.834811885      2.749591705      8.411500898     -0.413693577      0.555717714      1.624719657       26
Fe     4.196633415      4.287237899      9.962640242      0.789513263     -1.208634182     -0.934150669       26
Fe     2.876328704      5.731286058     -0.144962148     -0.689312747     -0.407879799      1.660091351       26
Fe     4.238177436      7.249179578      1.362693745      0.134359936     -0.983127356     -0.335723590       26
Fe     2.804483389      5.854287114      2.783460264      0.892643809     -1.313095017      0.411771421       26
Fe     4.177583077      7.198068790      4.154744839      0.515552970     -0.241111109      0.808661554       26
Fe     2.922235280      5.736368153      5.688789368     -0.720842184     -0.892927402     -0.550129936       26
Fe     4.130424005      7.140010196      7.115546968      0.931700922      0.053439864      0.015568544       26
Fe     2.828373323      5.495974971      8.463931180      0.101322032      1.405148222      0.042529131       26
Fe     4.248944470      7.096159544      9.932956979     -0.522590593      0.810611221     -1.257821442       26
Fe     2.785215203      8.652953564      0.024631941      0.114903884     -0.987303856      0.127431584       26
Fe     4.189072713     10.003064119      1.454892357      0.548892464      0.431936325     -0.854611537       26
Fe     2.822771103      8.608334825      2.784317655     -0.259396794     -0.504178924      0.038772492       26
Fe     4.093417234     10.057724331      4.245894077      0.709351410     -0.367329903     -0.176646097       26
Fe     2.766498289      8.586044549      5.810306242     -0.144171008     -0.313916779     -1.507514893       26
Fe     4.178135300      9.941466234      7.076434583     -0.287161622      0.874095871      0.657357792       26
Fe     2.767318072      8.605865264      8.581368225     -0.271296116     -0.673128424     -0.226227764       26
Fe     4.012138739     10.024616322      9.986912644      2.122580609     -0.603286207     -0.149790925       26
Fe     5.714554965      0.026153697      0.028170994     -0.747037354     -0.048025892     -0.138049726       26
Fe     7.186759529      1.389702181      1.402123210     -0.288345101      0.401723550     -0.194667730       26
Fe     5.759871698      0.103191653      2.823041893     -0.870585544     -0.778847042      0.184710876       26
Fe     7.094737156      1.472229285      4.275697565      0.836612530     -0.928201137      0.369812818       26
Fe     5.570675434     -0.027261295      5.692146459      1.015704775      0.442054388     -0.003028759       26
Fe     7.144483056      1.468319223      7.106370547     -0.459548430     -0.673087286      0.213050861       26
Fe     5.665329654      0.072435181      8.470559537     -0.081958797     -0.980546225      0.085359081       26
Fe     7.213525828      1.291423832      9.881996326     -0.960866231      1.078346617      0.260809615       26
Fe     5.761173318      2.773092496      0.025988827     -0.505833172      0.327492460     -0.414234795       26
Fe     7.206545255      4.162945084      1.378030923     -0.539073678      0.710394507     -0.020558026       26
Fe     5.809326609      2.797651500      2.898605278     -1.354258378      0.532332246     -1.441248824       26
Fe     7.138603517      4.131474715      4.092064802      0.394913212      1.530093549      1.553936674       26
Fe     5.705289818      2.773810360      5.630439061     -0.273683386      0.910244553      0.777079923       26
Fe     7.045573834      4.187608331      7.003050837      0.084151948      0.940264753      1.112990432       26
Fe     5.594382249      2.729516341      8.537238929      0.846356754      0.960257650      0.104644925       26
Fe     7.136988751      4.232843785      9.989142098     -0.469366959      0.395199376     -0.823420457       26
Fe     5.573062209      5.719590408     -0.147624315      1.314929499     -0.489512323      1.470480981       26
Fe     7.019444279      7.101145445      1.372457334      0.013853875     -0.234348336      0.076782652       26
Fe     5.674077691      5.705225699      2.817425970     -0.002069224     -0.155950517     -0.663999722       26
Fe     7.171995589      7.018890775      4.089421858     -1.329259542      0.749293754      1.811598231       26
Fe     5.704253718      5.768028918      5.657880720     -0.246494742     -0.349487476     -0.605133802       26
Fe     7.043839138      7.027623544      7.082014530      0.522561540      1.813521416     -0.377740814       26
Fe     5.691787068      5.778881289      8.429651829     -0.238941098     -1.151139946      0.675258069       26
Fe     7.111142238      7.074201445      9.919806037     -0.279133610      0.146620755     -0.758050417       26
Fe     5.682284896      8.505433435     -0.163888374     -0.750559765      0.725280937      1.038116567       26
Fe     6.955971854      9.954099556      1.404886015      1.156114259     -0.566871417      0.031772150       26
Fe     5.578981758      8.572461393      2.738381496      0.747695300     -0.005926136      0.912994604       26
Fe     7.199920139      9.930245405      4.237769613     -1.215822472      0.166248556      0.246479572       26
Fe     5.479605150      8.622448137      5.537576197      1.509720899     -0.848152669      0.598961098       26
Fe     7.072500038      9.996596790      7.045028615      0.058182007     -0.698849740      0.109488112       26
Fe     5.566446546      8.637866060      8.423907487      0.682622222     -0.729059687      0.592917977       26
Fe     7.091691943      9.960271704      9.927430688     -0.649069584     -0.573679441     -0.310975951       26
Fe     8.546202852      0.000306811      0.011905382     -1.071095078     -0.827358359     -0.145405395       26
Fe    10.015896269      1.006737775      1.368737905      1.125281076      1.634971931      0.644825978       26
Fe     8.466050509     -0.018451236      2.789852798      0.183254347     -0.321625717      0.499421869       26
Fe     9.706674727      1.371248407      4.379672346      1.873548189      0.744396060     -1.239149063       26
Fe     8.600758720      0.125247568      5.714971141     -1.364556674     -1.809999776      0.252942554       26
Fe     9.935021018      1.328209105      7.191959446     -0.054101152      0.733741666      0.102409608       26
Fe     8.549910482     -0.200869563      8.564419001      0.175419938      1.728559313     -0.450369078       26
Fe     9.934422471      1.376778608     10.036568141      0.780120767     -0.620035916     -1.116088868       26
Fe     8.659665285      2.774279060     -0.044148553     -0.640749237      0.292810850      0.860492165       26
Fe    10.183833291      4.068813210      1.434158498     -1.320073762      0.718235343      0.500666797       26
Fe     8.571116067      2.749520197      2.779824483      0.398431252      0.048952261     -0.103767665       26
Fe     9.974570582      4.163479354      4.144503687     -0.480169192     -0.602545730      0.091541813       26
Fe     8.542180625      2.905876023      5.818453873      0.064648845     -0.548195438     -1.182035606       26
Fe     9.920453435      4.334627706      7.076205911      0.039151987     -0.772934019      0.215159936       26
Fe     8.450679340      2.866329519      8.596037205      0.679791181     -0.205715246     -0.901590219       26
Fe     9.945113417      4.224471597      9.843247413      0.235159776      0.446429120      0.645245068       26
Fe     8.546338276      5.688323479      0.066952085      0.074404125     -0.609598523     -0.477683963       26
Fe     9.918615925      7.061214546      1.469313964     -0.068126777     -0.636832161     -0.902998156       26
Fe     8.521280320      5.697323412      2.766789016      0.422876015     -1.228099490      0.018677522       26
Fe     9.868730148      7.114199251      4.207054047      0.781231997     -0.714991639      0.335166946       26
Fe     8.480598506      5.669013697      5.698050582     -0.041081857     -0.032734256     -0.830872028       26
Fe     9.950049514      7.105174665      7.016662137     -0.088101162     -0.120941091      0.062667810       26
Fe     8.607139023      5.774023603      8.463224809     -0.864238005     -0.807885338      0.464779083       26
Fe     9.965206203      7.057754347     10.019994063      0.027298430     -0.186126269     -0.650775253       26
Fe     8.351866664      8.475592793      0.003809129      1.108400241      0.114122012      0.518855038       26
Fe     9.900363846      9.958545078      1.349890611      0.057759060     -0.847949809      0.576925458       26
Fe     8.485169058      8.413643394      2.910766159     -0.234749685      1.274460336     -1.710655436       26
Fe     9.928763715      9.867430919      4.105909420      0.701925293      1.134581270      0.165883202       26
Fe     8.616577609      8.633288890      5.685672590     -1.186455076     -0.998763519      0.092704465       26
Fe    10.006739162      9.980025341      7.053028854     -0.348838015     -0.691303552      0.199849789       26
Fe     8.559673741      8.528482379      8.590418755     -0.579201142     -0.504981108     -0.992213891       26
Fe     9.886595984      9.848479667     10.088651828      0.863278212      0.300092471     -0.592102423       26
123
Lattice="11.3344 0.0 0.0 0.0 11.3344 0.0 0.0 0.0 11.3344" Properties=species:S:1:pos:R:3:force:R:3:Z:I:1 config_type=quinvacancy_123_high config_name=quinvacancy_123_high_0001 ecutwfc=1224.51225528 pbc="T T T" kpoints="3 3 3" timestamp=1474629351.55 degauss=0.136056917253 energy=-425675.774633
Fe     0.036502753      0.137448959      5.780226818     -0.511855209      0.027228753     -1.360289414       26
Fe     1.547713306      1.564904100      6.999408925     -0.550407872     -0.965821261      1.015614015       26
Fe     0.048228994      0.174622209      8.318131715     -0.562354246     -0.448823331      1.355386578       26
Fe     1.471397827      1.477993995      9.941179270     -0.328405202     -0.732301077     -0.474708169       26
Fe     0.091198747      2.803056716     -0.026756914     -0.010062269      0.180921842      0.206284746       26
Fe     1.336696678      4.204546560      1.528831261     -0.531692298      0.427758026     -1.194780565       26
Fe     1.377428590      4.245808389      4.074675611      0.421569381      0.579367749      0.760543873       26
Fe     0.244059589      2.861870975      5.543871436     -1.098394537     -0.658552840      0.357152963       26
Fe     1.480261816      4.233654705      7.177600756     -0.328197971      1.200868680     -1.282454153       26
Fe     0.198646116      2.871125467      8.540502612     -1.751342886     -0.759134137     -0.346871893       26
Fe     1.438334034      4.302261046      9.909530791     -0.327329452     -0.499139819      0.703276408       26
Fe    -0.213629468      5.633840163     -0.017016879      1.332272361      0.003808832      0.292153162       26
Fe     1.404395213      7.031095759      1.536263284     -0.504705743      0.153810074     -1.110419072       26
Fe    -0.137024667      5.594185575      2.864789866      0.482727182      1.201451806     -0.670802861       26
Fe     1.424569232      7.088840594      4.309431255     -0.131044755      0.098431083     -0.268535780       26
Fe    -0.012955185      5.666986743      5.718324333      1.035455475     -0.017948100     -0.297319537       26
Fe     1.566453546      7.201977956      7.147731246     -1.689472118     -0.382236388     -0.598356117       26
Fe    -0.038304061      5.602658798      8.520536908      0.582764948      0.631715409     -0.088644951       26
Fe     1.407172481      7.093235927      9.973011569     -0.175177740      0.144898373     -0.139017746       26
Fe     0.078474398      8.557766615      0.060966343     -0.820082137     -0.724931267     -0.491023875       26
Fe     1.182047960      9.979505829      1.558589207      0.840645048      0.384151860     -0.537709451       26
Fe    -0.033763058      8.442688894      2.876662548     -0.282800003     -0.031155085      0.072744735       26
Fe     1.298346770     10.066554452      4.314926683      0.197927375     -0.229427245     -1.075443585       26
Fe    -0.040282582      8.584650905      5.704892343      0.530900399     -0.327354649     -0.243308631       26
Fe     1.270281798     10.019781747      6.991376655      1.767820572     -0.163839690      1.067121438       26
Fe     0.074312271      8.565581446      8.552045123     -0.281906288      0.129792114     -0.173820712       26
Fe     1.548184658     10.091873246      9.913585027     -1.772208159     -0.769795473     -0.081698087       26
Fe     2.779323503      0.008301870      0.032851534      0.186704253      0.550631558      0.893306897       26
Fe     4.356321498      1.431308678      1.362666078     -0.334673551     -0.392399187      0.441617557       26
Fe     2.663150618      0.234827278      2.701744239      0.487891243     -0.628268331      0.851941704       26
Fe     4.377176091      1.397149517      4.203992342     -1.378504137      0.477530468     -0.164120197       26
Fe     2.849413800      0.136991253      5.604869834     -0.513985625     -0.249342238     -0.509464083       26
Fe     4.198937313      1.489682686      7.004829307      0.811527305     -0.249228595      0.095790818       26
Fe     2.899842575      0.050305082      8.521951464     -0.561971151      0.160041142     -0.706026974       26
Fe     4.141691634      1.403451228      9.974596617      1.196234009      0.661349943      0.007766531       26
Fe     2.788807086      2.814314677      0.054464195     -0.016771306      0.053671263      0.187410278       26
Fe     4.314449640      4.148649992      1.437071416     -0.717288148      0.599182984      0.196176197       26
Fe     2.602223106      2.664164287      2.702430196      0.995547583      0.169076770      0.804585841       26
Fe     4.228710957      4.239112683      4.245269439     -0.115084890      0.021034709     -0.183993282       26
Fe     2.730713140      2.935613612      5.569661413      1.318281446     -0.382654449     -0.611383382       26
Fe     4.195595637      4.353880250      7.089245062      0.658990185     -0.440463389     -0.394950493       26
Fe     2.939525817      2.907556371      8.453351232     -0.457201527     -0.224367828      0.809490735       26
Fe     4.226708780      4.431436720      9.933694429      0.682448416     -2.251240409     -0.381528820       26
Fe     2.813633616      5.585312417     -0.051580690     -0.641813931      0.715901038      1.669956417       26
Fe     4.185673061      7.053044087      1.446087580      0.115135283      0.123077935     -0.297593873       26
Fe     2.816464960      5.615650627      2.759022810      0.204453349     -0.000859777      0.813812502       26
Fe     4.344418021      6.964543936      4.225351588     -1.163222845      1.174330267      0.596920927       26
Fe     2.880285408      5.798071029      5.664603946     -0.694913381     -1.213565301     -0.156805409       26
Fe     4.128990158      7.104332882      7.134032263      1.542347427      0.366808484     -0.158559672       26
Fe     2.783057621      5.699147469      8.553190408      0.377454650      0.448264116     -0.333540466       26
Fe     4.229291437      6.987504835     10.074882538     -0.353996934      1.652876064     -1.390868829       26
Fe     2.783063311      8.566875438      0.026045624     -0.063919680     -0.609830179      0.458778385       26
Fe     4.118237133      9.942209091      1.517162145      0.675050323     -0.176304141     -0.741696402       26
Fe     2.801333989      8.524243563      2.867161804     -0.403254642      0.029285893      0.352628850       26
Fe     4.259722453      9.928672235      4.260809660     -0.625040825     -0.005498818     -0.745611163       26
Fe     2.869911938      8.682265263      5.617644892     -0.596573057     -1.151158201      0.238286752       26
Fe     4.234250996      9.957560345      7.083737359      0.317432248      0.182509498      0.442066215       26
Fe     2.895764118      8.613050888      8.429846463     -0.737784468     -0.419600430      1.105184563       26
Fe     4.213405641      9.818668608      9.971166907      0.617680785      0.653701169     -0.072392494       26
Fe     5.694299360     -0.207565677     -0.060653593     -0.363494332      1.293400624      0.944472106       26
Fe     7.111831472      1.373232006      1.424606239     -0.815816677     -0.005224996     -0.435821776       26
Fe     5.647796573     -0.032364155      2.873173706      0.097886524     -0.464118309     -0.652759888       26
Fe     7.038222127      1.343467803      4.135123167      0.969044653      0.029626050      1.175516574       26
Fe     5.608592220     -0.168301615      5.634697395      0.985305080      1.717024059      0.535447909       26
Fe     7.133890141      1.436882324      6.912865261     -0.578661210     -0.158876175      0.899855753       26
Fe     5.633515773      0.169907858      8.623989377     -0.000086389     -1.344484329     -1.145997739       26
Fe     7.064463484      1.492714740      9.847578593      0.056763529     -0.639213517      0.884450218       26
Fe     5.670670684      2.847623951      0.021275213      0.135729305     -0.174483285     -0.559329857       26
Fe     7.100544064      4.299258359      1.378679489     -0.072640605     -0.232518482      0.269999509       26
Fe     5.799877109      2.835504179      2.888027766     -1.744167966     -0.275255358     -1.334624920       26
Fe     6.998840856      4.188934592      4.192973718      0.960713250      1.102836117      1.284879217       26
Fe     5.670896295      2.821636155      5.596611578     -0.294323944      0.116635522      0.435117551       26
Fe     7.155125400      4.145278291      6.954624353     -0.430460255      0.712713128      0.997101044       26
Fe     5.622758294      2.879998715      8.398470181      0.296036299     -0.074469945      0.537643888       26
Fe     7.123584893      4.159750642      9.936155886     -0.520949715      0.673548542     -0.676486027       26
Fe     5.586276238      5.697429888      0.029533445      1.199915057     -0.842479530      0.505951185       26
Fe     7.207561100      7.076874437      1.445057124     -1.264973480     -0.498890936      0.051633150       26
Fe     5.688355012      5.690195888      2.885177992     -0.039416811     -0.753074304     -0.877572517       26
Fe     7.112656367      6.993209665      4.272484024     -0.621802007      0.833158767      1.018603694       26
Fe     5.710356623      5.678103149      5.793433729     -0.634896378     -0.686870713     -1.396552767       26
Fe     7.010614804      6.893125995      7.122776139      0.747942383      2.554516935     -0.277589663       26
Fe     5.668074449      5.716932616      8.474196180     -0.410707241     -1.188408343      0.529933921       26
Fe     6.988403086      6.975809366      9.900000590      1.146176174      0.069086055     -0.339812929       26
Fe     5.843662485      8.335231562     -0.001828069     -1.651382511      1.323384057      0.708946976       26
Fe     7.038974867      9.853496476      1.551797045      0.334751970     -0.367664147     -0.998136427       26
Fe     5.561074494      8.404310207      2.798595236      0.917615648      0.597545191      0.535823290       26
Fe     7.134277177      9.785968490      4.352722996     -0.787565138      1.007589345     -0.477650539       26
Fe     5.602178752      8.497989851      5.695277281      0.627522454     -0.734253058      0.325174868       26
Fe     7.067398822      9.920945291      7.211031535     -0.706397213     -0.513096795     -0.818618408       26
Fe     5.621644394      8.487562033      8.595649138      0.165696026     -0.202834325     -0.568123544       26
Fe     7.180245366      9.876543505      9.988229804     -1.304572067      0.037472800     -0.978817930       26
Fe     8.475812930     -0.077298670      0.063355646     -0.251980704      0.125403755     -0.110910447       26
Fe    10.105162694      1.393084230      1.471613770     -0.031083351     -0.283121648     -0.493385176       26
Fe     8.449755575      0.008879074      2.692165786      0.576087536     -0.276188926      1.623364172       26
Fe    10.315187630      1.259170799      3.857199293     -0.465581781      0.447349060      1.021438592       26
Fe     8.527113614      0.080271989      5.623113593      0.037058852     -0.519216278     -0.409095417       26
Fe     9.913170142      1.541710982      6.932700030      0.205108723     -0.165037824      0.842691903       26
Fe     8.370645815     -0.071620158      8.508766825      1.308342590      1.342019413     -0.053470717       26
Fe     9.863744088      1.309057676     10.120685744      1.077730581      0.038919559     -1.260326982       26
Fe     8.521324468      2.661314252      0.120263685     -0.380743348      1.009256191     -0.912689929       26
Fe     9.901147608      4.061172849      1.375852769      0.211650124      0.842349690      0.855035255       26
Fe     8.426559329      2.888807822      2.866227227      1.077992062     -1.014118404     -0.356770897       26
Fe    10.126279259      4.123185834      4.223682496     -1.157355588      0.176040602     -0.230663431       26
Fe     8.576647901      2.899452683      5.493752760      0.000792414     -0.850693948      0.193879944       26
Fe     9.956150833      4.239896480      7.041629111      0.279571726     -0.543049632      0.177275246       26
Fe     8.512632320      2.799332618      8.503516822      0.119000423     -0.217073866     -0.692073340       26
Fe     9.859853023      4.073402803      9.890399866      0.365729135      0.969283508      0.142065789       26
Fe     8.450603173      5.608015447     -0.093354584      0.229185561     -0.093839093      0.187567886       26
Fe     9.670712501      7.034181186      1.371663586      2.034299984      0.409476197      0.537691710       26
Fe     8.448809776      5.655982174      3.031688124      0.949991493     -0.681822095     -1.240975831       26
Fe     9.937972779      7.158271195      4.334338758     -0.047953130     -0.941968108     -0.257065061       26
Fe     8.576153925      5.691117148      5.757986549     -0.258203545     -0.507772812     -1.161381164       26
Fe    10.038951470      7.118375320      7.083343376     -0.533123889      0.111854813      0.330248426       26
Fe     8.574525908      5.718107052      8.346262495     -0.577884994     -1.254382334      1.430432450       26
Fe     9.913623292      7.099560952      9.799444910      0.426522868     -0.277376004      1.065969327       26
Fe     8.489122893      8.457913747     -0.192742911      0.682277437      0.179190975      1.839379257       26
Fe    10.035412179     10.032792482      1.463606391     -0.533934300     -0.410599769     -0.085179875       26
Fe     8.441671042      8.472830090      3.002200945      0.686885111      0.191740787     -1.352440094       26
Fe     9.881962232      9.947340774      4.261798553      0.620314109      0.687173846     -0.485962401       26
Fe     8.529777096      8.514289500      5.733758090     -0.866052175     -0.778938059      0.286962876       26
Fe     9.764256732      9.894568771      7.083012037      1.230767781      0.741946827      0.603078462       26
Fe     8.479916209      8.397350546      8.555770197     -0.298247705      0.617923240     -0.997592896       26
Fe     9.962636048     10.012579110      9.910793602      0.538229585     -0.085286576      0.347985952       26
123
Lattice="11.3344 0.0 0.0 0.0 11.3344 0.0 0.0 0.0 11.3344" Properties=species:S:1:pos:R:3:force:R:3:Z:I:1 config_type=quinvacancy_123_high config_name=quinvacancy_123_high_0002 ecutwfc=1224.51225528 pbc="T T T" kpoints="3 3 3" timestamp=1474629351.55 degauss=0.136056917253 energy=-425675.383296
Fe     0.276869424      0.050157293      5.610899995     -1.515996448     -0.172686856     -0.587212185       26
Fe     1.361488865      1.331392530      7.131670752      0.678003750     -0.060480830      0.810447956       26
Fe     0.108399300     -0.072460139      8.459557485     -1.404451710     -0.123188493      0.385061516       26
Fe     1.368800947      1.400597317      9.998168032     -0.668069779     -0.490616098     -0.649380944       26
Fe     0.076896809      2.927322725     -0.078293501      0.059060810     -0.224157255      0.275370029       26
Fe     1.446454791      4.130179918      1.510386826     -1.005108488      1.284949408     -0.554667676       26
Fe     1.236059311      4.221708587      4.274224557      0.975667814      0.148493032      0.077667112       26
Fe    -0.002758215      2.811828794      5.630011539     -0.067820558     -0.380499608      0.815248977       26
Fe     1.395004334      4.035749938      7.162441495     -0.073121144      2.386562452     -1.237067240       26
Fe     0.100195087      2.952396266      8.549813119     -1.819768682     -1.525755327      0.219011192       26
Fe     1.460268387      4.350481936      9.877308430     -0.420722716     -0.392674038      0.747092119       26